# vtk DataFile Version 3.0
GRASS 6 Export
ASCII
DATASET STRUCTURED_POINTS
DIMENSIONS 162 144 1
SPACING 200.000000 200.000000 0.000000
ORIGIN 587861.400000 1677789.600000 -1000.000000
CELL_DATA 23023
SCALARS dem_clip@PERMANENT float 1
LOOKUP_TABLE default
-1000.00 -1000.00 -1000.00 -1000.00 -1000.00 -1000.00 -1000.00 -1000.00 -1000.00 -1000.00 -1000.00 -1000.00 -1000.00 -1000.00 -1000.00 -1000.00 -1000.00 -1000.00 -1000.00 -1000.00 -1000.00 -1000.00 -1000.00 -1000.00 -1000.00 -1000.00 -1000.00 -1000.00 -1000.00 -1000.00 -1000.00 -1000.00 -1000.00 -1000.00 -1000.00 -1000.00 -1000.00 -1000.00 -1000.00 -1000.00 -1000.00 -1000.00 -1000.00 -1000.00 -1000.00 -1000.00 -1000.00 -1000.00 -1000.00 -1000.00 -1000.00 -1000.00 -1000.00 -1000.00 -1000.00 -1000.00 -1000.00 -1000.00 -1000.00 -1000.00 -1000.00 -1000.00 -1000.00 -1000.00 -1000.00 -1000.00 -1000.00 -1000.00 -1000.00 -1000.00 -1000.00 -1000.00 -1000.00 -1000.00 -1000.00 -1000.00 -1000.00 -1000.00 -1000.00 -1000.00 -1000.00 -1000.00 -1000.00 -1000.00 -1000.00 -1000.00 -1000.00 -1000.00 -1000.00 -1000.00 -1000.00 -1000.00 -1000.00 -1000.00 -1000.00 -1000.00 -1000.00 -1000.00 -1000.00 -1000.00 -1000.00 -1000.00 -1000.00 -1000.00 32.30 32.30 32.30 32.30 32.30 32.30 32.30 32.30 32.30 32.30 32.30 33.30 33.30 33.30 33.30 33.30 34.30 33.30 33.30 33.30 32.30 32.30 31.30 31.30 31.30 30.30 30.30 29.30 28.30 28.30 27.30 27.30 27.30 26.30 -1000.00 -1000.00 -1000.00 -1000.00 -1000.00 -1000.00 -1000.00 -1000.00 -1000.00 -1000.00 -1000.00 -1000.00 -1000.00 -1000.00 -1000.00 -1000.00 -1000.00 -1000.00 -1000.00 -1000.00 -1000.00 -1000.00 -1000.00 
-1000.00 -1000.00 -1000.00 -1000.00 -1000.00 -1000.00 -1000.00 -1000.00 -1000.00 -1000.00 -1000.00 -1000.00 -1000.00 -1000.00 -1000.00 -1000.00 -1000.00 -1000.00 -1000.00 -1000.00 -1000.00 -1000.00 -1000.00 -1000.00 -1000.00 -1000.00 -1000.00 -1000.00 -1000.00 -1000.00 -1000.00 -1000.00 -1000.00 -1000.00 -1000.00 -1000.00 -1000.00 -1000.00 -1000.00 -1000.00 -1000.00 -1000.00 -1000.00 -1000.00 -1000.00 -1000.00 -1000.00 -1000.00 -1000.00 -1000.00 -1000.00 -1000.00 -1000.00 -1000.00 -1000.00 -1000.00 -1000.00 -1000.00 -1000.00 -1000.00 -1000.00 -1000.00 -1000.00 -1000.00 -1000.00 -1000.00 -1000.00 -1000.00 -1000.00 -1000.00 -1000.00 -1000.00 -1000.00 -1000.00 -1000.00 -1000.00 -1000.00 -1000.00 -1000.00 -1000.00 -1000.00 -1000.00 -1000.00 -1000.00 -1000.00 -1000.00 -1000.00 -1000.00 -1000.00 -1000.00 -1000.00 -1000.00 -1000.00 -1000.00 -1000.00 -1000.00 -1000.00 -1000.00 -1000.00 -1000.00 -1000.00 33.30 33.30 33.30 33.30 33.30 33.30 32.30 32.30 33.30 33.30 32.30 33.30 33.30 33.30 33.30 33.30 33.30 34.30 34.30 34.30 34.30 33.30 33.30 32.30 32.30 31.30 31.30 30.30 30.30 29.30 29.30 29.30 28.30 28.30 27.30 27.30 26.30 26.30 25.30 25.30 25.30 -1000.00 -1000.00 -1000.00 -1000.00 -1000.00 -1000.00 -1000.00 -1000.00 -1000.00 -1000.00 -1000.00 -1000.00 -1000.00 -1000.00 -1000.00 -1000.00 -1000.00 -1000.00 -1000.00 
-1000.00 -1000.00 -1000.00 -1000.00 -1000.00 -1000.00 -1000.00 -1000.00 -1000.00 -1000.00 -1000.00 -1000.00 -1000.00 -1000.00 -1000.00 -1000.00 -1000.00 -1000.00 -1000.00 -1000.00 -1000.00 -1000.00 -1000.00 -1000.00 -1000.00 -1000.00 -1000.00 -1000.00 -1000.00 -1000.00 -1000.00 -1000.00 -1000.00 -1000.00 -1000.00 -1000.00 -1000.00 -1000.00 -1000.00 -1000.00 -1000.00 -1000.00 -1000.00 -1000.00 -1000.00 -1000.00 -1000.00 -1000.00 -1000.00 -1000.00 -1000.00 -1000.00 -1000.00 -1000.00 -1000.00 -1000.00 -1000.00 -1000.00 -1000.00 -1000.00 -1000.00 -1000.00 -1000.00 -1000.00 -1000.00 -1000.00 -1000.00 -1000.00 -1000.00 -1000.00 -1000.00 -1000.00 -1000.00 -1000.00 -1000.00 -1000.00 -1000.00 -1000.00 -1000.00 -1000.00 -1000.00 -1000.00 -1000.00 -1000.00 -1000.00 -1000.00 -1000.00 -1000.00 -1000.00 -1000.00 -1000.00 -1000.00 -1000.00 -1000.00 -1000.00 -1000.00 -1000.00 -1000.00 -1000.00 -1000.00 -1000.00 33.30 33.30 33.30 34.30 33.30 34.30 33.30 33.30 33.30 33.30 33.30 33.30 33.30 33.30 34.30 34.30 34.30 34.30 34.30 34.30 33.30 33.30 33.30 32.30 32.30 31.30 31.30 30.30 30.30 29.30 29.30 28.30 28.30 27.30 27.30 26.30 26.30 25.30 25.30 25.30 25.30 -1000.00 -1000.00 -1000.00 -1000.00 -1000.00 -1000.00 -1000.00 -1000.00 -1000.00 -1000.00 -1000.00 -1000.00 -1000.00 -1000.00 -1000.00 -1000.00 -1000.00 -1000.00 -1000.00 
-1000.00 -1000.00 -1000.00 -1000.00 -1000.00 -1000.00 -1000.00 -1000.00 -1000.00 -1000.00 -1000.00 -1000.00 -1000.00 -1000.00 -1000.00 -1000.00 -1000.00 -1000.00 -1000.00 -1000.00 -1000.00 -1000.00 -1000.00 -1000.00 -1000.00 -1000.00 -1000.00 -1000.00 -1000.00 -1000.00 -1000.00 -1000.00 -1000.00 -1000.00 -1000.00 -1000.00 -1000.00 -1000.00 -1000.00 -1000.00 -1000.00 -1000.00 -1000.00 -1000.00 -1000.00 -1000.00 -1000.00 -1000.00 -1000.00 -1000.00 -1000.00 -1000.00 -1000.00 -1000.00 -1000.00 -1000.00 -1000.00 -1000.00 -1000.00 -1000.00 -1000.00 -1000.00 -1000.00 -1000.00 -1000.00 -1000.00 -1000.00 -1000.00 -1000.00 -1000.00 -1000.00 -1000.00 -1000.00 -1000.00 -1000.00 -1000.00 -1000.00 -1000.00 -1000.00 -1000.00 -1000.00 -1000.00 -1000.00 -1000.00 -1000.00 -1000.00 -1000.00 -1000.00 -1000.00 -1000.00 -1000.00 -1000.00 -1000.00 -1000.00 -1000.00 -1000.00 -1000.00 -1000.00 -1000.00 32.39 33.30 34.30 34.30 34.30 34.30 34.30 34.30 34.30 34.30 33.30 34.30 34.30 34.30 34.30 34.30 34.30 34.30 34.30 34.30 34.30 34.30 33.30 33.30 33.30 32.30 32.30 31.30 30.30 30.30 29.30 29.30 29.30 28.30 27.30 27.30 27.30 26.30 26.30 25.30 25.30 25.30 26.30 26.30 26.30 -1000.00 -1000.00 -1000.00 -1000.00 -1000.00 -1000.00 -1000.00 -1000.00 -1000.00 -1000.00 -1000.00 -1000.00 -1000.00 -1000.00 -1000.00 -1000.00 -1000.00 
-1000.00 -1000.00 -1000.00 -1000.00 -1000.00 -1000.00 -1000.00 -1000.00 -1000.00 -1000.00 -1000.00 -1000.00 -1000.00 -1000.00 -1000.00 -1000.00 -1000.00 -1000.00 -1000.00 -1000.00 -1000.00 -1000.00 -1000.00 -1000.00 -1000.00 -1000.00 -1000.00 -1000.00 -1000.00 -1000.00 -1000.00 -1000.00 -1000.00 -1000.00 -1000.00 -1000.00 -1000.00 -1000.00 -1000.00 -1000.00 -1000.00 -1000.00 -1000.00 -1000.00 -1000.00 -1000.00 -1000.00 -1000.00 -1000.00 -1000.00 -1000.00 -1000.00 -1000.00 -1000.00 -1000.00 -1000.00 -1000.00 -1000.00 -1000.00 -1000.00 -1000.00 -1000.00 -1000.00 -1000.00 -1000.00 -1000.00 -1000.00 -1000.00 -1000.00 -1000.00 -1000.00 -1000.00 -1000.00 -1000.00 -1000.00 -1000.00 -1000.00 -1000.00 -1000.00 -1000.00 -1000.00 -1000.00 -1000.00 -1000.00 -1000.00 -1000.00 -1000.00 -1000.00 -1000.00 -1000.00 -1000.00 -1000.00 -1000.00 -1000.00 -1000.00 -1000.00 -1000.00 -1000.00 -1000.00 33.39 34.30 34.30 34.30 34.30 35.30 35.30 35.30 35.30 35.30 35.30 35.30 34.30 34.30 34.30 34.30 35.30 34.30 34.30 34.30 34.30 34.30 33.30 33.30 32.30 32.30 31.30 31.30 30.30 30.30 29.30 29.30 29.30 28.30 28.30 27.30 26.30 26.30 26.30 25.30 25.30 25.30 26.30 26.30 26.30 -1000.00 -1000.00 -1000.00 -1000.00 -1000.00 -1000.00 -1000.00 -1000.00 -1000.00 -1000.00 -1000.00 -1000.00 -1000.00 -1000.00 -1000.00 -1000.00 -1000.00 
-1000.00 -1000.00 -1000.00 -1000.00 -1000.00 -1000.00 -1000.00 -1000.00 -1000.00 -1000.00 -1000.00 -1000.00 -1000.00 -1000.00 -1000.00 -1000.00 -1000.00 -1000.00 -1000.00 -1000.00 -1000.00 -1000.00 -1000.00 -1000.00 -1000.00 -1000.00 -1000.00 -1000.00 -1000.00 -1000.00 -1000.00 -1000.00 -1000.00 -1000.00 -1000.00 -1000.00 -1000.00 -1000.00 -1000.00 -1000.00 -1000.00 -1000.00 -1000.00 -1000.00 -1000.00 -1000.00 -1000.00 -1000.00 -1000.00 -1000.00 -1000.00 -1000.00 -1000.00 -1000.00 -1000.00 -1000.00 -1000.00 -1000.00 -1000.00 -1000.00 -1000.00 -1000.00 -1000.00 -1000.00 -1000.00 -1000.00 -1000.00 -1000.00 -1000.00 -1000.00 -1000.00 -1000.00 -1000.00 -1000.00 -1000.00 -1000.00 -1000.00 -1000.00 -1000.00 -1000.00 -1000.00 -1000.00 -1000.00 -1000.00 -1000.00 -1000.00 -1000.00 -1000.00 -1000.00 -1000.00 -1000.00 -1000.00 -1000.00 -1000.00 -1000.00 -1000.00 -1000.00 33.39 33.39 34.39 34.39 35.30 35.30 35.30 35.30 35.30 35.30 35.30 35.30 35.30 36.30 36.30 36.30 36.30 35.30 35.30 34.30 34.30 34.30 34.30 34.30 33.30 32.30 32.30 31.30 31.30 31.30 30.30 30.30 29.30 29.30 28.30 28.30 27.30 27.30 26.30 26.30 25.30 25.30 25.30 25.30 26.30 26.30 26.30 27.30 -1000.00 -1000.00 -1000.00 -1000.00 -1000.00 -1000.00 -1000.00 -1000.00 -1000.00 -1000.00 -1000.00 -1000.00 -1000.00 -1000.00 -1000.00 -1000.00 
-1000.00 -1000.00 -1000.00 -1000.00 -1000.00 -1000.00 -1000.00 -1000.00 -1000.00 -1000.00 -1000.00 -1000.00 -1000.00 -1000.00 -1000.00 -1000.00 -1000.00 -1000.00 -1000.00 -1000.00 -1000.00 -1000.00 -1000.00 -1000.00 -1000.00 -1000.00 -1000.00 -1000.00 -1000.00 -1000.00 -1000.00 -1000.00 -1000.00 -1000.00 -1000.00 -1000.00 -1000.00 -1000.00 -1000.00 -1000.00 -1000.00 -1000.00 -1000.00 -1000.00 -1000.00 -1000.00 -1000.00 -1000.00 -1000.00 -1000.00 -1000.00 -1000.00 -1000.00 -1000.00 -1000.00 -1000.00 -1000.00 -1000.00 -1000.00 -1000.00 -1000.00 -1000.00 -1000.00 -1000.00 -1000.00 -1000.00 -1000.00 -1000.00 -1000.00 -1000.00 -1000.00 -1000.00 -1000.00 -1000.00 -1000.00 -1000.00 -1000.00 -1000.00 -1000.00 -1000.00 -1000.00 -1000.00 -1000.00 -1000.00 -1000.00 -1000.00 -1000.00 -1000.00 -1000.00 -1000.00 -1000.00 -1000.00 -1000.00 -1000.00 -1000.00 -1000.00 -1000.00 34.39 34.39 34.39 34.39 35.30 35.30 35.30 35.30 36.30 36.30 36.30 36.30 36.30 36.30 36.30 36.30 35.30 35.30 34.30 34.30 34.30 34.30 33.30 33.30 33.30 32.30 32.30 31.30 31.30 31.30 30.30 29.30 29.30 28.30 28.30 28.30 27.30 27.30 27.30 26.30 25.30 25.30 25.30 26.30 26.30 26.30 27.30 27.30 -1000.00 -1000.00 -1000.00 -1000.00 -1000.00 -1000.00 -1000.00 -1000.00 -1000.00 -1000.00 -1000.00 -1000.00 -1000.00 -1000.00 -1000.00 -1000.00 
-1000.00 -1000.00 -1000.00 -1000.00 -1000.00 -1000.00 -1000.00 -1000.00 -1000.00 -1000.00 -1000.00 -1000.00 -1000.00 -1000.00 -1000.00 -1000.00 -1000.00 -1000.00 -1000.00 -1000.00 -1000.00 -1000.00 -1000.00 -1000.00 -1000.00 -1000.00 -1000.00 -1000.00 -1000.00 -1000.00 -1000.00 -1000.00 -1000.00 -1000.00 -1000.00 -1000.00 -1000.00 -1000.00 -1000.00 -1000.00 -1000.00 -1000.00 -1000.00 -1000.00 -1000.00 -1000.00 -1000.00 -1000.00 -1000.00 -1000.00 -1000.00 -1000.00 -1000.00 -1000.00 -1000.00 -1000.00 -1000.00 -1000.00 -1000.00 -1000.00 -1000.00 -1000.00 -1000.00 -1000.00 -1000.00 -1000.00 -1000.00 -1000.00 -1000.00 -1000.00 -1000.00 -1000.00 -1000.00 -1000.00 -1000.00 -1000.00 -1000.00 -1000.00 -1000.00 -1000.00 -1000.00 -1000.00 -1000.00 -1000.00 -1000.00 -1000.00 -1000.00 -1000.00 -1000.00 -1000.00 -1000.00 -1000.00 -1000.00 -1000.00 -1000.00 -1000.00 34.39 34.39 34.39 35.39 35.39 36.30 36.30 36.30 36.30 36.30 36.30 36.30 36.30 36.30 36.30 36.30 36.30 35.30 35.30 35.30 35.30 34.30 33.30 33.30 33.30 33.30 32.30 32.30 31.30 31.30 30.30 30.30 29.30 29.30 28.30 28.30 28.30 27.30 27.30 26.30 25.30 25.30 25.30 26.30 26.30 26.30 27.30 27.30 27.30 28.30 28.30 28.30 29.30 -1000.00 -1000.00 -1000.00 -1000.00 -1000.00 -1000.00 -1000.00 -1000.00 -1000.00 -1000.00 -1000.00 -1000.00 
-1000.00 -1000.00 -1000.00 -1000.00 -1000.00 -1000.00 -1000.00 -1000.00 -1000.00 -1000.00 -1000.00 -1000.00 -1000.00 -1000.00 -1000.00 -1000.00 -1000.00 -1000.00 -1000.00 -1000.00 -1000.00 -1000.00 -1000.00 -1000.00 -1000.00 -1000.00 -1000.00 -1000.00 -1000.00 -1000.00 -1000.00 -1000.00 -1000.00 -1000.00 -1000.00 -1000.00 -1000.00 -1000.00 -1000.00 -1000.00 -1000.00 -1000.00 -1000.00 -1000.00 -1000.00 -1000.00 -1000.00 -1000.00 -1000.00 -1000.00 -1000.00 -1000.00 -1000.00 -1000.00 -1000.00 -1000.00 -1000.00 -1000.00 -1000.00 -1000.00 -1000.00 -1000.00 -1000.00 -1000.00 -1000.00 -1000.00 -1000.00 -1000.00 -1000.00 -1000.00 -1000.00 -1000.00 -1000.00 -1000.00 -1000.00 -1000.00 -1000.00 -1000.00 -1000.00 -1000.00 -1000.00 -1000.00 -1000.00 -1000.00 -1000.00 -1000.00 -1000.00 -1000.00 -1000.00 -1000.00 -1000.00 -1000.00 37.39 37.39 37.39 36.39 35.39 35.39 35.39 35.39 35.39 35.39 37.30 36.30 36.30 37.30 36.30 36.30 36.30 36.30 36.30 35.30 35.30 35.30 35.30 35.30 34.30 34.30 34.30 34.30 33.30 33.30 32.30 31.30 31.30 31.30 30.30 30.30 29.30 29.30 28.30 28.30 27.30 27.30 26.30 26.30 25.30 25.30 25.30 26.30 26.30 26.30 27.30 27.30 27.30 28.30 28.30 29.30 29.30 -1000.00 -1000.00 -1000.00 -1000.00 -1000.00 -1000.00 -1000.00 -1000.00 -1000.00 -1000.00 -1000.00 -1000.00 
-1000.00 -1000.00 -1000.00 -1000.00 -1000.00 -1000.00 -1000.00 -1000.00 -1000.00 -1000.00 -1000.00 -1000.00 -1000.00 -1000.00 -1000.00 -1000.00 -1000.00 -1000.00 -1000.00 -1000.00 -1000.00 -1000.00 -1000.00 -1000.00 -1000.00 -1000.00 -1000.00 -1000.00 -1000.00 -1000.00 -1000.00 -1000.00 -1000.00 -1000.00 -1000.00 -1000.00 -1000.00 -1000.00 -1000.00 -1000.00 -1000.00 -1000.00 -1000.00 -1000.00 -1000.00 -1000.00 -1000.00 -1000.00 -1000.00 -1000.00 -1000.00 -1000.00 -1000.00 -1000.00 -1000.00 -1000.00 -1000.00 -1000.00 -1000.00 -1000.00 -1000.00 -1000.00 -1000.00 -1000.00 -1000.00 -1000.00 -1000.00 -1000.00 -1000.00 -1000.00 -1000.00 -1000.00 -1000.00 -1000.00 -1000.00 -1000.00 -1000.00 -1000.00 -1000.00 -1000.00 -1000.00 -1000.00 -1000.00 -1000.00 -1000.00 -1000.00 -1000.00 -1000.00 -1000.00 -1000.00 -1000.00 -1000.00 37.39 37.39 37.39 37.39 36.39 36.39 35.39 36.39 36.39 36.39 37.30 37.30 37.30 36.30 36.30 36.30 36.30 36.30 35.30 35.30 35.30 35.30 34.30 34.30 34.30 34.30 34.30 33.30 33.30 32.30 32.30 31.30 31.30 30.30 30.30 30.30 29.30 28.30 28.30 27.30 27.30 27.30 26.30 26.30 25.30 25.30 26.30 26.30 26.30 27.30 27.30 27.30 28.30 28.30 28.30 28.30 29.30 -1000.00 -1000.00 -1000.00 -1000.00 -1000.00 -1000.00 -1000.00 -1000.00 -1000.00 -1000.00 -1000.00 -1000.00 
-1000.00 -1000.00 -1000.00 -1000.00 -1000.00 -1000.00 -1000.00 -1000.00 -1000.00 -1000.00 -1000.00 -1000.00 -1000.00 -1000.00 -1000.00 -1000.00 -1000.00 -1000.00 -1000.00 -1000.00 -1000.00 -1000.00 -1000.00 -1000.00 -1000.00 -1000.00 -1000.00 -1000.00 -1000.00 -1000.00 -1000.00 -1000.00 -1000.00 -1000.00 -1000.00 -1000.00 -1000.00 -1000.00 -1000.00 -1000.00 -1000.00 -1000.00 -1000.00 -1000.00 -1000.00 -1000.00 -1000.00 -1000.00 -1000.00 -1000.00 -1000.00 -1000.00 -1000.00 -1000.00 -1000.00 -1000.00 -1000.00 -1000.00 -1000.00 -1000.00 -1000.00 -1000.00 -1000.00 -1000.00 -1000.00 -1000.00 -1000.00 -1000.00 -1000.00 -1000.00 -1000.00 -1000.00 -1000.00 -1000.00 -1000.00 -1000.00 -1000.00 -1000.00 -1000.00 -1000.00 -1000.00 -1000.00 -1000.00 -1000.00 -1000.00 -1000.00 -1000.00 -1000.00 36.39 36.39 36.39 36.39 37.39 37.39 37.39 37.39 36.39 36.39 36.39 36.39 36.39 36.39 36.39 36.30 36.30 36.30 36.30 36.30 35.30 35.30 35.30 35.30 35.30 35.30 34.30 34.30 34.30 34.30 33.30 33.30 33.30 32.30 32.30 31.30 31.30 30.30 30.30 29.30 29.30 29.30 28.30 27.30 27.30 27.30 26.30 26.30 25.30 26.30 26.30 26.30 27.30 27.30 27.30 27.30 28.30 28.30 28.30 29.30 29.30 30.30 29.30 -1000.00 -1000.00 -1000.00 -1000.00 -1000.00 -1000.00 -1000.00 -1000.00 -1000.00 -1000.00 
-1000.00 -1000.00 -1000.00 -1000.00 -1000.00 -1000.00 -1000.00 -1000.00 -1000.00 -1000.00 -1000.00 -1000.00 -1000.00 -1000.00 -1000.00 -1000.00 -1000.00 -1000.00 -1000.00 -1000.00 -1000.00 -1000.00 -1000.00 -1000.00 -1000.00 -1000.00 -1000.00 -1000.00 -1000.00 -1000.00 -1000.00 -1000.00 -1000.00 -1000.00 -1000.00 -1000.00 -1000.00 -1000.00 -1000.00 -1000.00 -1000.00 -1000.00 -1000.00 -1000.00 -1000.00 -1000.00 -1000.00 -1000.00 -1000.00 -1000.00 -1000.00 -1000.00 -1000.00 -1000.00 -1000.00 -1000.00 -1000.00 -1000.00 -1000.00 -1000.00 -1000.00 -1000.00 -1000.00 -1000.00 -1000.00 -1000.00 -1000.00 -1000.00 -1000.00 -1000.00 -1000.00 -1000.00 -1000.00 -1000.00 -1000.00 -1000.00 -1000.00 -1000.00 -1000.00 -1000.00 -1000.00 -1000.00 -1000.00 -1000.00 -1000.00 -1000.00 -1000.00 -1000.00 36.39 36.39 36.39 36.39 36.39 37.39 37.39 36.39 36.39 36.39 36.39 36.39 36.39 36.39 36.39 36.30 36.30 36.30 36.30 35.30 35.30 35.30 35.30 34.30 34.30 34.30 34.30 34.30 34.30 33.30 33.30 33.30 33.30 32.30 32.30 31.30 31.30 30.30 30.30 29.30 29.30 28.30 28.30 27.30 27.30 26.30 26.30 25.30 25.30 26.30 26.30 26.30 27.30 27.30 28.30 28.30 28.30 29.30 29.30 29.30 30.30 30.30 30.30 -1000.00 -1000.00 -1000.00 -1000.00 -1000.00 -1000.00 -1000.00 -1000.00 -1000.00 -1000.00 
-1000.00 -1000.00 -1000.00 -1000.00 -1000.00 -1000.00 -1000.00 -1000.00 -1000.00 -1000.00 -1000.00 -1000.00 -1000.00 -1000.00 -1000.00 -1000.00 -1000.00 -1000.00 -1000.00 -1000.00 -1000.00 -1000.00 -1000.00 -1000.00 -1000.00 -1000.00 -1000.00 -1000.00 -1000.00 -1000.00 -1000.00 -1000.00 -1000.00 -1000.00 -1000.00 -1000.00 -1000.00 -1000.00 -1000.00 -1000.00 -1000.00 -1000.00 -1000.00 -1000.00 -1000.00 -1000.00 -1000.00 -1000.00 -1000.00 -1000.00 -1000.00 -1000.00 -1000.00 -1000.00 -1000.00 -1000.00 -1000.00 -1000.00 -1000.00 -1000.00 -1000.00 -1000.00 -1000.00 -1000.00 -1000.00 -1000.00 -1000.00 -1000.00 -1000.00 -1000.00 -1000.00 -1000.00 -1000.00 -1000.00 -1000.00 -1000.00 -1000.00 -1000.00 -1000.00 -1000.00 -1000.00 -1000.00 -1000.00 -1000.00 -1000.00 -1000.00 -1000.00 35.39 36.39 36.39 36.39 36.39 36.39 36.39 36.39 36.39 36.39 36.39 36.39 36.39 35.39 35.39 35.39 36.30 36.30 36.30 35.30 35.30 35.30 35.30 35.30 34.30 34.30 34.30 33.30 33.30 33.30 33.30 33.30 33.30 32.30 32.30 31.30 31.30 30.30 30.30 29.30 29.30 28.30 28.30 28.30 27.30 27.30 26.30 26.30 25.30 25.30 26.30 26.30 26.30 27.30 27.30 28.30 28.30 28.30 29.30 29.30 29.30 30.30 30.30 30.30 -1000.00 -1000.00 -1000.00 -1000.00 -1000.00 -1000.00 -1000.00 -1000.00 -1000.00 -1000.00 
-1000.00 -1000.00 -1000.00 -1000.00 -1000.00 -1000.00 -1000.00 -1000.00 -1000.00 -1000.00 -1000.00 -1000.00 -1000.00 -1000.00 -1000.00 -1000.00 -1000.00 -1000.00 -1000.00 -1000.00 -1000.00 -1000.00 -1000.00 -1000.00 -1000.00 -1000.00 -1000.00 -1000.00 -1000.00 -1000.00 -1000.00 -1000.00 -1000.00 -1000.00 -1000.00 -1000.00 -1000.00 -1000.00 -1000.00 -1000.00 -1000.00 -1000.00 -1000.00 -1000.00 -1000.00 -1000.00 -1000.00 -1000.00 -1000.00 -1000.00 -1000.00 -1000.00 -1000.00 -1000.00 -1000.00 -1000.00 -1000.00 -1000.00 -1000.00 -1000.00 -1000.00 -1000.00 -1000.00 -1000.00 -1000.00 -1000.00 -1000.00 -1000.00 -1000.00 -1000.00 -1000.00 -1000.00 -1000.00 -1000.00 -1000.00 -1000.00 -1000.00 -1000.00 -1000.00 -1000.00 -1000.00 -1000.00 -1000.00 -1000.00 -1000.00 -1000.00 -1000.00 35.39 35.39 35.39 35.39 36.39 36.39 36.39 36.39 36.39 36.39 36.39 36.39 36.39 35.39 35.39 35.39 35.39 35.30 35.30 35.30 35.30 35.30 34.30 34.30 34.30 34.30 34.30 33.30 33.30 33.30 33.30 33.30 33.30 32.30 32.30 31.30 31.30 30.30 30.30 29.30 29.30 29.30 28.30 28.30 27.30 26.30 26.30 25.30 25.30 26.30 26.30 27.30 27.30 27.30 27.30 28.30 28.30 28.30 29.30 29.30 29.30 30.30 30.30 30.30 -1000.00 -1000.00 -1000.00 -1000.00 -1000.00 -1000.00 -1000.00 -1000.00 -1000.00 -1000.00 
-1000.00 -1000.00 -1000.00 -1000.00 -1000.00 -1000.00 -1000.00 -1000.00 -1000.00 -1000.00 -1000.00 -1000.00 -1000.00 -1000.00 -1000.00 -1000.00 -1000.00 -1000.00 -1000.00 -1000.00 -1000.00 -1000.00 -1000.00 -1000.00 -1000.00 -1000.00 -1000.00 -1000.00 -1000.00 -1000.00 -1000.00 -1000.00 -1000.00 -1000.00 -1000.00 -1000.00 -1000.00 -1000.00 -1000.00 -1000.00 -1000.00 -1000.00 -1000.00 -1000.00 -1000.00 -1000.00 -1000.00 -1000.00 -1000.00 -1000.00 -1000.00 -1000.00 -1000.00 -1000.00 -1000.00 -1000.00 -1000.00 -1000.00 -1000.00 -1000.00 -1000.00 -1000.00 -1000.00 -1000.00 -1000.00 -1000.00 -1000.00 -1000.00 -1000.00 -1000.00 -1000.00 -1000.00 -1000.00 -1000.00 -1000.00 -1000.00 -1000.00 -1000.00 -1000.00 -1000.00 -1000.00 -1000.00 -1000.00 34.39 34.39 34.39 34.39 35.39 35.39 35.39 35.39 35.39 36.39 36.39 36.39 36.39 36.39 36.39 35.39 35.39 35.39 35.39 35.39 34.39 35.30 35.30 35.30 34.30 34.30 34.30 34.30 34.30 33.30 33.30 33.30 33.30 33.30 33.30 32.30 32.30 32.30 32.30 32.30 31.30 31.30 30.30 29.30 29.30 28.30 28.30 27.30 27.30 26.30 26.30 25.30 26.30 26.30 26.30 27.30 27.30 27.30 28.30 28.30 28.30 29.30 29.30 29.30 30.30 30.30 31.30 31.30 31.30 31.30 -1000.00 -1000.00 -1000.00 -1000.00 -1000.00 -1000.00 -1000.00 -1000.00 
-1000.00 -1000.00 -1000.00 -1000.00 -1000.00 -1000.00 -1000.00 -1000.00 -1000.00 -1000.00 -1000.00 -1000.00 -1000.00 -1000.00 -1000.00 -1000.00 -1000.00 -1000.00 -1000.00 -1000.00 -1000.00 -1000.00 -1000.00 -1000.00 -1000.00 -1000.00 -1000.00 -1000.00 -1000.00 -1000.00 -1000.00 -1000.00 -1000.00 -1000.00 -1000.00 -1000.00 -1000.00 -1000.00 -1000.00 -1000.00 -1000.00 -1000.00 -1000.00 -1000.00 -1000.00 -1000.00 -1000.00 -1000.00 -1000.00 -1000.00 -1000.00 -1000.00 -1000.00 -1000.00 -1000.00 -1000.00 -1000.00 -1000.00 -1000.00 -1000.00 -1000.00 -1000.00 -1000.00 -1000.00 -1000.00 -1000.00 -1000.00 -1000.00 -1000.00 -1000.00 -1000.00 -1000.00 -1000.00 -1000.00 -1000.00 -1000.00 -1000.00 -1000.00 -1000.00 -1000.00 -1000.00 -1000.00 -1000.00 34.39 34.39 34.39 34.39 35.39 35.39 35.39 35.39 35.39 35.39 36.39 36.39 35.39 35.39 35.39 35.39 35.39 35.39 34.39 34.39 34.39 35.30 35.30 34.30 34.30 34.30 34.30 34.30 34.30 33.30 33.30 33.30 32.30 32.30 32.30 32.30 32.30 32.30 31.30 31.30 31.30 31.30 30.30 30.30 28.30 28.30 27.30 27.30 27.30 26.30 26.30 25.30 26.30 26.30 26.30 27.30 27.30 28.30 28.30 28.30 29.30 29.30 29.30 30.30 30.30 30.30 31.30 31.30 31.30 31.30 -1000.00 -1000.00 -1000.00 -1000.00 -1000.00 -1000.00 -1000.00 -1000.00 
-1000.00 -1000.00 -1000.00 -1000.00 -1000.00 -1000.00 -1000.00 -1000.00 -1000.00 -1000.00 -1000.00 -1000.00 -1000.00 -1000.00 -1000.00 -1000.00 -1000.00 -1000.00 -1000.00 -1000.00 -1000.00 -1000.00 -1000.00 -1000.00 -1000.00 -1000.00 -1000.00 -1000.00 -1000.00 -1000.00 -1000.00 -1000.00 -1000.00 -1000.00 -1000.00 -1000.00 -1000.00 -1000.00 -1000.00 -1000.00 -1000.00 -1000.00 -1000.00 -1000.00 -1000.00 -1000.00 -1000.00 -1000.00 -1000.00 -1000.00 -1000.00 -1000.00 -1000.00 -1000.00 -1000.00 -1000.00 -1000.00 -1000.00 -1000.00 -1000.00 -1000.00 -1000.00 -1000.00 -1000.00 -1000.00 -1000.00 -1000.00 -1000.00 -1000.00 -1000.00 -1000.00 -1000.00 -1000.00 -1000.00 -1000.00 -1000.00 -1000.00 -1000.00 -1000.00 33.39 33.39 33.39 33.39 34.39 34.39 34.39 34.39 34.39 34.39 35.39 35.39 35.39 35.39 35.39 35.39 35.39 35.39 35.39 35.39 35.39 35.39 34.39 34.39 34.39 34.39 34.30 34.30 34.30 34.30 33.30 33.30 33.30 33.30 33.30 33.30 32.30 32.30 32.30 32.30 32.30 32.30 31.30 31.30 31.30 31.30 30.30 29.30 29.30 29.30 27.30 27.30 27.30 26.30 25.30 26.30 26.30 26.30 27.30 27.30 27.30 27.30 28.30 28.30 29.30 29.30 29.30 30.30 30.30 30.30 31.30 31.30 31.30 32.30 -1000.00 -1000.00 -1000.00 -1000.00 -1000.00 -1000.00 -1000.00 -1000.00 
-1000.00 -1000.00 -1000.00 -1000.00 -1000.00 -1000.00 -1000.00 -1000.00 -1000.00 -1000.00 -1000.00 -1000.00 -1000.00 -1000.00 -1000.00 -1000.00 -1000.00 -1000.00 -1000.00 -1000.00 -1000.00 -1000.00 -1000.00 -1000.00 -1000.00 -1000.00 -1000.00 -1000.00 -1000.00 -1000.00 -1000.00 -1000.00 -1000.00 -1000.00 -1000.00 -1000.00 -1000.00 -1000.00 -1000.00 -1000.00 -1000.00 -1000.00 -1000.00 -1000.00 -1000.00 -1000.00 -1000.00 -1000.00 -1000.00 -1000.00 -1000.00 -1000.00 -1000.00 -1000.00 -1000.00 -1000.00 -1000.00 -1000.00 -1000.00 -1000.00 -1000.00 -1000.00 -1000.00 -1000.00 -1000.00 -1000.00 -1000.00 -1000.00 -1000.00 -1000.00 -1000.00 -1000.00 -1000.00 -1000.00 -1000.00 -1000.00 32.39 32.39 33.39 33.39 33.39 33.39 33.39 33.39 33.39 34.39 34.39 34.39 34.39 34.39 35.39 35.39 35.39 35.39 35.39 35.39 35.39 35.39 34.39 34.39 34.39 34.39 34.39 34.39 33.39 34.30 34.30 34.30 33.30 33.30 33.30 33.30 33.30 32.30 32.30 32.30 32.30 32.30 31.30 31.30 31.30 31.30 31.30 31.30 30.30 30.30 30.30 29.30 29.30 27.30 27.30 26.30 26.30 26.30 26.30 26.30 26.30 27.30 27.30 27.30 28.30 28.30 29.30 29.30 29.30 30.30 30.30 30.30 31.30 31.30 31.30 31.30 32.30 -1000.00 -1000.00 -1000.00 -1000.00 -1000.00 -1000.00 -1000.00 -1000.00 
-1000.00 -1000.00 -1000.00 -1000.00 -1000.00 -1000.00 -1000.00 -1000.00 -1000.00 -1000.00 -1000.00 -1000.00 -1000.00 -1000.00 -1000.00 -1000.00 -1000.00 -1000.00 -1000.00 -1000.00 -1000.00 -1000.00 -1000.00 -1000.00 -1000.00 -1000.00 -1000.00 -1000.00 -1000.00 -1000.00 -1000.00 -1000.00 -1000.00 -1000.00 -1000.00 -1000.00 -1000.00 -1000.00 -1000.00 -1000.00 -1000.00 -1000.00 -1000.00 -1000.00 -1000.00 -1000.00 -1000.00 -1000.00 -1000.00 -1000.00 -1000.00 -1000.00 -1000.00 -1000.00 -1000.00 -1000.00 -1000.00 -1000.00 -1000.00 -1000.00 -1000.00 -1000.00 -1000.00 -1000.00 -1000.00 -1000.00 -1000.00 -1000.00 -1000.00 -1000.00 -1000.00 -1000.00 -1000.00 -1000.00 -1000.00 -1000.00 32.39 32.39 32.39 32.39 33.39 33.39 33.39 33.39 33.39 33.39 34.39 34.39 34.39 34.39 35.39 35.39 35.39 34.39 35.39 35.39 34.39 34.39 34.39 34.39 34.39 33.39 33.39 33.39 33.39 33.39 34.30 33.30 33.30 33.30 33.30 33.30 32.30 32.30 32.30 32.30 31.30 31.30 31.30 31.30 31.30 31.30 30.30 30.30 30.30 30.30 30.30 29.30 28.30 27.30 26.30 26.30 26.30 26.30 26.30 26.30 27.30 27.30 28.30 28.30 28.30 29.30 29.30 29.30 29.30 30.30 30.30 30.30 31.30 31.30 31.30 32.30 32.30 -1000.00 -1000.00 -1000.00 -1000.00 -1000.00 -1000.00 -1000.00 -1000.00 
-1000.00 -1000.00 -1000.00 -1000.00 -1000.00 -1000.00 -1000.00 -1000.00 -1000.00 -1000.00 -1000.00 -1000.00 -1000.00 -1000.00 -1000.00 -1000.00 -1000.00 -1000.00 -1000.00 -1000.00 -1000.00 -1000.00 -1000.00 -1000.00 -1000.00 -1000.00 -1000.00 -1000.00 -1000.00 -1000.00 -1000.00 -1000.00 -1000.00 -1000.00 -1000.00 -1000.00 -1000.00 -1000.00 -1000.00 -1000.00 -1000.00 -1000.00 -1000.00 -1000.00 -1000.00 -1000.00 -1000.00 -1000.00 -1000.00 -1000.00 -1000.00 -1000.00 -1000.00 -1000.00 -1000.00 -1000.00 -1000.00 -1000.00 -1000.00 -1000.00 -1000.00 -1000.00 -1000.00 -1000.00 -1000.00 -1000.00 -1000.00 -1000.00 -1000.00 -1000.00 -1000.00 -1000.00 32.39 31.39 31.39 32.39 32.39 32.39 32.39 32.39 32.39 33.39 33.39 33.39 33.39 33.39 33.39 34.39 34.39 34.39 34.39 34.39 34.39 34.39 34.39 34.39 34.39 34.39 34.39 34.39 34.39 34.39 33.39 33.39 33.39 32.39 33.30 33.30 33.30 33.30 32.30 32.30 32.30 32.30 32.30 32.30 31.30 31.30 31.30 31.30 31.30 30.30 30.30 30.30 30.30 30.30 30.30 29.30 28.30 28.30 26.30 26.30 26.30 26.30 26.30 26.30 27.30 27.30 28.30 28.30 28.30 29.30 29.30 29.30 30.30 30.30 30.30 31.30 31.30 31.30 32.30 32.30 32.30 32.30 -1000.00 -1000.00 -1000.00 -1000.00 -1000.00 -1000.00 -1000.00 
-1000.00 -1000.00 -1000.00 -1000.00 -1000.00 -1000.00 -1000.00 -1000.00 -1000.00 -1000.00 -1000.00 -1000.00 -1000.00 -1000.00 -1000.00 -1000.00 -1000.00 -1000.00 -1000.00 -1000.00 -1000.00 -1000.00 -1000.00 -1000.00 -1000.00 -1000.00 -1000.00 -1000.00 -1000.00 -1000.00 -1000.00 -1000.00 -1000.00 -1000.00 -1000.00 -1000.00 -1000.00 -1000.00 -1000.00 -1000.00 -1000.00 -1000.00 -1000.00 -1000.00 -1000.00 -1000.00 -1000.00 -1000.00 -1000.00 -1000.00 -1000.00 -1000.00 -1000.00 -1000.00 -1000.00 -1000.00 -1000.00 -1000.00 -1000.00 -1000.00 -1000.00 -1000.00 -1000.00 -1000.00 -1000.00 -1000.00 -1000.00 -1000.00 -1000.00 -1000.00 -1000.00 -1000.00 32.39 31.39 31.39 31.39 31.39 32.39 32.39 32.39 32.39 32.39 32.39 32.39 33.39 33.39 33.39 34.39 34.39 34.39 34.39 34.39 34.39 34.39 34.39 34.39 34.39 34.39 34.39 33.39 33.39 33.39 33.39 33.39 33.39 32.39 33.30 33.30 33.30 32.30 32.30 32.30 32.30 31.30 31.30 31.30 31.30 31.30 31.30 30.30 30.30 30.30 30.30 30.30 29.30 29.30 29.30 29.30 28.30 28.30 26.30 26.30 26.30 26.30 27.30 27.30 27.30 27.30 28.30 28.30 28.30 29.30 29.30 29.30 30.30 30.30 31.30 31.30 31.30 31.30 32.30 32.30 32.30 31.30 -1000.00 -1000.00 -1000.00 -1000.00 -1000.00 -1000.00 -1000.00 
-1000.00 -1000.00 -1000.00 -1000.00 -1000.00 -1000.00 -1000.00 -1000.00 -1000.00 -1000.00 -1000.00 -1000.00 -1000.00 -1000.00 -1000.00 -1000.00 -1000.00 -1000.00 -1000.00 -1000.00 -1000.00 -1000.00 -1000.00 -1000.00 -1000.00 -1000.00 -1000.00 -1000.00 -1000.00 -1000.00 -1000.00 -1000.00 -1000.00 -1000.00 -1000.00 -1000.00 -1000.00 -1000.00 -1000.00 -1000.00 -1000.00 -1000.00 -1000.00 -1000.00 -1000.00 -1000.00 -1000.00 -1000.00 -1000.00 -1000.00 -1000.00 -1000.00 -1000.00 -1000.00 -1000.00 -1000.00 -1000.00 -1000.00 -1000.00 -1000.00 -1000.00 -1000.00 -1000.00 -1000.00 -1000.00 -1000.00 -1000.00 -1000.00 -1000.00 -1000.00 -1000.00 31.39 31.39 31.39 31.39 31.39 31.39 31.39 31.39 31.39 32.39 32.39 32.39 32.39 33.39 33.39 33.39 34.39 34.39 34.39 34.39 34.39 34.39 34.39 33.39 34.39 33.39 33.39 33.39 33.39 33.39 33.39 32.39 32.39 32.39 32.39 32.39 33.30 32.30 32.30 32.30 32.30 32.30 31.30 31.30 31.30 31.30 31.30 30.30 30.30 30.30 30.30 30.30 29.30 29.30 29.30 29.30 29.30 28.30 27.30 27.30 27.30 26.30 26.30 27.30 27.30 27.30 28.30 28.30 28.30 29.30 29.30 30.30 30.30 30.30 30.30 31.30 31.30 32.30 32.30 33.30 33.30 32.30 31.30 -1000.00 -1000.00 -1000.00 -1000.00 -1000.00 -1000.00 -1000.00 
-1000.00 -1000.00 -1000.00 -1000.00 -1000.00 -1000.00 -1000.00 -1000.00 -1000.00 -1000.00 -1000.00 -1000.00 -1000.00 -1000.00 -1000.00 -1000.00 -1000.00 -1000.00 -1000.00 -1000.00 -1000.00 -1000.00 -1000.00 -1000.00 -1000.00 -1000.00 -1000.00 -1000.00 -1000.00 -1000.00 -1000.00 -1000.00 -1000.00 -1000.00 -1000.00 -1000.00 -1000.00 -1000.00 -1000.00 -1000.00 -1000.00 -1000.00 -1000.00 -1000.00 -1000.00 -1000.00 -1000.00 -1000.00 -1000.00 -1000.00 -1000.00 -1000.00 -1000.00 -1000.00 -1000.00 -1000.00 -1000.00 -1000.00 -1000.00 -1000.00 -1000.00 -1000.00 -1000.00 -1000.00 -1000.00 -1000.00 -1000.00 -1000.00 -1000.00 -1000.00 -1000.00 30.39 30.39 30.39 30.39 31.39 31.39 31.39 31.39 31.39 32.39 32.39 32.39 32.39 33.39 33.39 33.39 33.39 33.39 33.39 33.39 33.39 33.39 33.39 33.39 33.39 33.39 33.39 33.39 33.39 33.39 33.39 32.39 32.39 32.39 32.39 31.39 32.30 32.30 32.30 32.30 31.30 31.30 31.30 31.30 31.30 30.30 30.30 30.30 30.30 30.30 30.30 29.30 29.30 29.30 29.30 29.30 29.30 28.30 27.30 27.30 27.30 27.30 28.30 27.30 27.30 28.30 28.30 28.30 29.30 29.30 29.30 30.30 30.30 30.30 31.30 31.30 31.30 32.30 32.30 33.30 32.30 32.30 31.30 -1000.00 -1000.00 -1000.00 -1000.00 -1000.00 -1000.00 -1000.00 