# vtk DataFile Version 3.0
GRASS 6 Export
ASCII
DATASET STRUCTURED_POINTS
DIMENSIONS 162 144 1
SPACING 200.000000 200.000000 0.000000
ORIGIN 587861.400000 1677789.600000 -1000.000000
CELL_DATA 23023
SCALARS direz_flussi@PERMANENT float 1
LOOKUP_TABLE default
-1000.00 -1000.00 -1000.00 -1000.00 -1000.00 -1000.00 -1000.00 -1000.00 -1000.00 -1000.00 -1000.00 -1000.00 -1000.00 -1000.00 -1000.00 -1000.00 -1000.00 -1000.00 -1000.00 -1000.00 -1000.00 -1000.00 -1000.00 -1000.00 -1000.00 -1000.00 -1000.00 -1000.00 -1000.00 -1000.00 -1000.00 -1000.00 -1000.00 -1000.00 -1000.00 -1000.00 -1000.00 -1000.00 -1000.00 -1000.00 -1000.00 -1000.00 -1000.00 -1000.00 -1000.00 -1000.00 -1000.00 -1000.00 -1000.00 -1000.00 -1000.00 -1000.00 -1000.00 -1000.00 -1000.00 -1000.00 -1000.00 -1000.00 -1000.00 -1000.00 -1000.00 -1000.00 -1000.00 -1000.00 -1000.00 -1000.00 -1000.00 -1000.00 -1000.00 -1000.00 -1000.00 -1000.00 -1000.00 -1000.00 -1000.00 -1000.00 -1000.00 -1000.00 -1000.00 -1000.00 -1000.00 -1000.00 -1000.00 -1000.00 -1000.00 -1000.00 -1000.00 -1000.00 -1000.00 -1000.00 -1000.00 -1000.00 -1000.00 -1000.00 -1000.00 -1000.00 -1000.00 -1000.00 -1000.00 -1000.00 -1000.00 -1000.00 -1000.00 -1000.00 145.87 145.87 146.57 146.57 147.84 147.84 149.62 149.62 151.89 153.91 153.91 154.73 154.73 156.08 156.08 157.49 158.17 158.17 159.69 159.69 156.64 156.64 157.51 157.51 155.03 154.41 154.41 155.18 155.18 156.87 156.87 156.75 156.33 156.33 -1000.00 -1000.00 -1000.00 -1000.00 -1000.00 -1000.00 -1000.00 -1000.00 -1000.00 -1000.00 -1000.00 -1000.00 -1000.00 -1000.00 -1000.00 -1000.00 -1000.00 -1000.00 -1000.00 -1000.00 -1000.00 -1000.00 -1000.00 
-1000.00 -1000.00 -1000.00 -1000.00 -1000.00 -1000.00 -1000.00 -1000.00 -1000.00 -1000.00 -1000.00 -1000.00 -1000.00 -1000.00 -1000.00 -1000.00 -1000.00 -1000.00 -1000.00 -1000.00 -1000.00 -1000.00 -1000.00 -1000.00 -1000.00 -1000.00 -1000.00 -1000.00 -1000.00 -1000.00 -1000.00 -1000.00 -1000.00 -1000.00 -1000.00 -1000.00 -1000.00 -1000.00 -1000.00 -1000.00 -1000.00 -1000.00 -1000.00 -1000.00 -1000.00 -1000.00 -1000.00 -1000.00 -1000.00 -1000.00 -1000.00 -1000.00 -1000.00 -1000.00 -1000.00 -1000.00 -1000.00 -1000.00 -1000.00 -1000.00 -1000.00 -1000.00 -1000.00 -1000.00 -1000.00 -1000.00 -1000.00 -1000.00 -1000.00 -1000.00 -1000.00 -1000.00 -1000.00 -1000.00 -1000.00 -1000.00 -1000.00 -1000.00 -1000.00 -1000.00 -1000.00 -1000.00 -1000.00 -1000.00 -1000.00 -1000.00 -1000.00 -1000.00 -1000.00 -1000.00 -1000.00 -1000.00 -1000.00 -1000.00 -1000.00 -1000.00 -1000.00 -1000.00 -1000.00 -1000.00 -1000.00 144.91 144.91 144.45 145.68 145.68 145.85 145.85 146.80 146.80 148.23 148.23 152.00 153.59 153.59 154.18 154.18 154.25 154.25 155.20 157.16 157.16 156.90 156.90 155.19 155.19 156.56 156.56 154.86 154.86 154.86 156.02 156.02 157.07 157.07 157.14 156.69 156.69 156.28 156.28 155.97 155.97 -1000.00 -1000.00 -1000.00 -1000.00 -1000.00 -1000.00 -1000.00 -1000.00 -1000.00 -1000.00 -1000.00 -1000.00 -1000.00 -1000.00 -1000.00 -1000.00 -1000.00 -1000.00 -1000.00 
-1000.00 -1000.00 -1000.00 -1000.00 -1000.00 -1000.00 -1000.00 -1000.00 -1000.00 -1000.00 -1000.00 -1000.00 -1000.00 -1000.00 -1000.00 -1000.00 -1000.00 -1000.00 -1000.00 -1000.00 -1000.00 -1000.00 -1000.00 -1000.00 -1000.00 -1000.00 -1000.00 -1000.00 -1000.00 -1000.00 -1000.00 -1000.00 -1000.00 -1000.00 -1000.00 -1000.00 -1000.00 -1000.00 -1000.00 -1000.00 -1000.00 -1000.00 -1000.00 -1000.00 -1000.00 -1000.00 -1000.00 -1000.00 -1000.00 -1000.00 -1000.00 -1000.00 -1000.00 -1000.00 -1000.00 -1000.00 -1000.00 -1000.00 -1000.00 -1000.00 -1000.00 -1000.00 -1000.00 -1000.00 -1000.00 -1000.00 -1000.00 -1000.00 -1000.00 -1000.00 -1000.00 -1000.00 -1000.00 -1000.00 -1000.00 -1000.00 -1000.00 -1000.00 -1000.00 -1000.00 -1000.00 -1000.00 -1000.00 -1000.00 -1000.00 -1000.00 -1000.00 -1000.00 -1000.00 -1000.00 -1000.00 -1000.00 -1000.00 -1000.00 -1000.00 -1000.00 -1000.00 -1000.00 -1000.00 -1000.00 -1000.00 144.91 144.91 144.45 145.68 145.68 145.85 145.85 146.80 146.80 148.23 148.23 152.00 153.59 153.59 154.18 154.18 154.25 154.25 155.20 157.16 157.16 156.90 156.90 155.19 155.19 156.56 156.56 154.86 154.86 154.86 156.02 156.02 157.07 157.07 157.14 156.69 156.69 156.28 156.28 155.97 155.97 -1000.00 -1000.00 -1000.00 -1000.00 -1000.00 -1000.00 -1000.00 -1000.00 -1000.00 -1000.00 -1000.00 -1000.00 -1000.00 -1000.00 -1000.00 -1000.00 -1000.00 -1000.00 -1000.00 
-1000.00 -1000.00 -1000.00 -1000.00 -1000.00 -1000.00 -1000.00 -1000.00 -1000.00 -1000.00 -1000.00 -1000.00 -1000.00 -1000.00 -1000.00 -1000.00 -1000.00 -1000.00 -1000.00 -1000.00 -1000.00 -1000.00 -1000.00 -1000.00 -1000.00 -1000.00 -1000.00 -1000.00 -1000.00 -1000.00 -1000.00 -1000.00 -1000.00 -1000.00 -1000.00 -1000.00 -1000.00 -1000.00 -1000.00 -1000.00 -1000.00 -1000.00 -1000.00 -1000.00 -1000.00 -1000.00 -1000.00 -1000.00 -1000.00 -1000.00 -1000.00 -1000.00 -1000.00 -1000.00 -1000.00 -1000.00 -1000.00 -1000.00 -1000.00 -1000.00 -1000.00 -1000.00 -1000.00 -1000.00 -1000.00 -1000.00 -1000.00 -1000.00 -1000.00 -1000.00 -1000.00 -1000.00 -1000.00 -1000.00 -1000.00 -1000.00 -1000.00 -1000.00 -1000.00 -1000.00 -1000.00 -1000.00 -1000.00 -1000.00 -1000.00 -1000.00 -1000.00 -1000.00 -1000.00 -1000.00 -1000.00 -1000.00 -1000.00 -1000.00 -1000.00 -1000.00 -1000.00 -1000.00 -1000.00 143.14 143.14 143.52 143.52 145.10 147.31 147.31 146.48 146.48 146.19 146.19 146.13 146.13 148.97 150.58 150.58 152.37 152.37 151.23 151.23 153.60 156.26 156.26 155.18 155.18 155.71 155.71 156.40 156.40 154.11 154.68 154.68 155.77 155.77 156.33 156.33 156.84 156.78 156.78 156.43 156.43 156.02 156.02 155.70 155.70 -1000.00 -1000.00 -1000.00 -1000.00 -1000.00 -1000.00 -1000.00 -1000.00 -1000.00 -1000.00 -1000.00 -1000.00 -1000.00 -1000.00 -1000.00 -1000.00 -1000.00 
-1000.00 -1000.00 -1000.00 -1000.00 -1000.00 -1000.00 -1000.00 -1000.00 -1000.00 -1000.00 -1000.00 -1000.00 -1000.00 -1000.00 -1000.00 -1000.00 -1000.00 -1000.00 -1000.00 -1000.00 -1000.00 -1000.00 -1000.00 -1000.00 -1000.00 -1000.00 -1000.00 -1000.00 -1000.00 -1000.00 -1000.00 -1000.00 -1000.00 -1000.00 -1000.00 -1000.00 -1000.00 -1000.00 -1000.00 -1000.00 -1000.00 -1000.00 -1000.00 -1000.00 -1000.00 -1000.00 -1000.00 -1000.00 -1000.00 -1000.00 -1000.00 -1000.00 -1000.00 -1000.00 -1000.00 -1000.00 -1000.00 -1000.00 -1000.00 -1000.00 -1000.00 -1000.00 -1000.00 -1000.00 -1000.00 -1000.00 -1000.00 -1000.00 -1000.00 -1000.00 -1000.00 -1000.00 -1000.00 -1000.00 -1000.00 -1000.00 -1000.00 -1000.00 -1000.00 -1000.00 -1000.00 -1000.00 -1000.00 -1000.00 -1000.00 -1000.00 -1000.00 -1000.00 -1000.00 -1000.00 -1000.00 -1000.00 -1000.00 -1000.00 -1000.00 -1000.00 -1000.00 -1000.00 -1000.00 143.14 143.14 143.52 143.52 145.10 147.31 147.31 146.48 146.48 146.19 146.19 146.13 146.13 148.97 150.58 150.58 152.37 152.37 151.23 151.23 153.60 156.26 156.26 155.18 155.18 155.71 155.71 156.40 156.40 154.11 154.68 154.68 155.77 155.77 156.33 156.33 156.84 156.78 156.78 156.43 156.43 156.02 156.02 155.70 155.70 -1000.00 -1000.00 -1000.00 -1000.00 -1000.00 -1000.00 -1000.00 -1000.00 -1000.00 -1000.00 -1000.00 -1000.00 -1000.00 -1000.00 -1000.00 -1000.00 -1000.00 
-1000.00 -1000.00 -1000.00 -1000.00 -1000.00 -1000.00 -1000.00 -1000.00 -1000.00 -1000.00 -1000.00 -1000.00 -1000.00 -1000.00 -1000.00 -1000.00 -1000.00 -1000.00 -1000.00 -1000.00 -1000.00 -1000.00 -1000.00 -1000.00 -1000.00 -1000.00 -1000.00 -1000.00 -1000.00 -1000.00 -1000.00 -1000.00 -1000.00 -1000.00 -1000.00 -1000.00 -1000.00 -1000.00 -1000.00 -1000.00 -1000.00 -1000.00 -1000.00 -1000.00 -1000.00 -1000.00 -1000.00 -1000.00 -1000.00 -1000.00 -1000.00 -1000.00 -1000.00 -1000.00 -1000.00 -1000.00 -1000.00 -1000.00 -1000.00 -1000.00 -1000.00 -1000.00 -1000.00 -1000.00 -1000.00 -1000.00 -1000.00 -1000.00 -1000.00 -1000.00 -1000.00 -1000.00 -1000.00 -1000.00 -1000.00 -1000.00 -1000.00 -1000.00 -1000.00 -1000.00 -1000.00 -1000.00 -1000.00 -1000.00 -1000.00 -1000.00 -1000.00 -1000.00 -1000.00 -1000.00 -1000.00 -1000.00 -1000.00 -1000.00 -1000.00 -1000.00 -1000.00 142.79 142.79 140.74 140.74 140.91 140.91 143.60 147.42 147.42 146.64 146.64 145.84 145.84 145.32 145.32 144.23 150.33 150.33 151.45 151.45 152.51 152.51 153.62 154.89 154.89 154.11 154.11 154.92 154.92 155.06 155.06 154.62 154.84 154.84 155.06 155.06 157.06 157.06 156.91 157.18 157.18 156.57 156.57 155.95 155.95 155.60 155.60 155.41 -1000.00 -1000.00 -1000.00 -1000.00 -1000.00 -1000.00 -1000.00 -1000.00 -1000.00 -1000.00 -1000.00 -1000.00 -1000.00 -1000.00 -1000.00 -1000.00 
-1000.00 -1000.00 -1000.00 -1000.00 -1000.00 -1000.00 -1000.00 -1000.00 -1000.00 -1000.00 -1000.00 -1000.00 -1000.00 -1000.00 -1000.00 -1000.00 -1000.00 -1000.00 -1000.00 -1000.00 -1000.00 -1000.00 -1000.00 -1000.00 -1000.00 -1000.00 -1000.00 -1000.00 -1000.00 -1000.00 -1000.00 -1000.00 -1000.00 -1000.00 -1000.00 -1000.00 -1000.00 -1000.00 -1000.00 -1000.00 -1000.00 -1000.00 -1000.00 -1000.00 -1000.00 -1000.00 -1000.00 -1000.00 -1000.00 -1000.00 -1000.00 -1000.00 -1000.00 -1000.00 -1000.00 -1000.00 -1000.00 -1000.00 -1000.00 -1000.00 -1000.00 -1000.00 -1000.00 -1000.00 -1000.00 -1000.00 -1000.00 -1000.00 -1000.00 -1000.00 -1000.00 -1000.00 -1000.00 -1000.00 -1000.00 -1000.00 -1000.00 -1000.00 -1000.00 -1000.00 -1000.00 -1000.00 -1000.00 -1000.00 -1000.00 -1000.00 -1000.00 -1000.00 -1000.00 -1000.00 -1000.00 -1000.00 -1000.00 -1000.00 -1000.00 -1000.00 -1000.00 142.79 142.79 140.74 140.74 140.91 140.91 143.60 147.42 147.42 146.64 146.64 145.84 145.84 145.32 145.32 144.23 150.33 150.33 151.45 151.45 152.51 152.51 153.62 154.89 154.89 154.11 154.11 154.92 154.92 155.06 155.06 154.62 154.84 154.84 155.06 155.06 157.06 157.06 156.91 157.18 157.18 156.57 156.57 155.95 155.95 155.60 155.60 155.41 -1000.00 -1000.00 -1000.00 -1000.00 -1000.00 -1000.00 -1000.00 -1000.00 -1000.00 -1000.00 -1000.00 -1000.00 -1000.00 -1000.00 -1000.00 -1000.00 
-1000.00 -1000.00 -1000.00 -1000.00 -1000.00 -1000.00 -1000.00 -1000.00 -1000.00 -1000.00 -1000.00 -1000.00 -1000.00 -1000.00 -1000.00 -1000.00 -1000.00 -1000.00 -1000.00 -1000.00 -1000.00 -1000.00 -1000.00 -1000.00 -1000.00 -1000.00 -1000.00 -1000.00 -1000.00 -1000.00 -1000.00 -1000.00 -1000.00 -1000.00 -1000.00 -1000.00 -1000.00 -1000.00 -1000.00 -1000.00 -1000.00 -1000.00 -1000.00 -1000.00 -1000.00 -1000.00 -1000.00 -1000.00 -1000.00 -1000.00 -1000.00 -1000.00 -1000.00 -1000.00 -1000.00 -1000.00 -1000.00 -1000.00 -1000.00 -1000.00 -1000.00 -1000.00 -1000.00 -1000.00 -1000.00 -1000.00 -1000.00 -1000.00 -1000.00 -1000.00 -1000.00 -1000.00 -1000.00 -1000.00 -1000.00 -1000.00 -1000.00 -1000.00 -1000.00 -1000.00 -1000.00 -1000.00 -1000.00 -1000.00 -1000.00 -1000.00 -1000.00 -1000.00 -1000.00 -1000.00 -1000.00 -1000.00 -1000.00 -1000.00 -1000.00 -1000.00 139.43 137.49 137.49 136.86 136.86 137.86 137.86 139.64 144.07 144.07 145.12 145.12 145.33 145.33 144.31 144.31 146.47 150.94 150.94 151.31 151.31 149.85 149.85 152.13 152.95 152.95 153.40 153.40 154.58 154.58 155.19 155.19 155.46 156.10 156.10 157.62 157.62 155.00 155.00 155.75 156.88 156.88 156.23 156.23 155.62 155.62 155.39 155.39 155.44 155.61 155.61 157.68 157.68 -1000.00 -1000.00 -1000.00 -1000.00 -1000.00 -1000.00 -1000.00 -1000.00 -1000.00 -1000.00 -1000.00 -1000.00 
-1000.00 -1000.00 -1000.00 -1000.00 -1000.00 -1000.00 -1000.00 -1000.00 -1000.00 -1000.00 -1000.00 -1000.00 -1000.00 -1000.00 -1000.00 -1000.00 -1000.00 -1000.00 -1000.00 -1000.00 -1000.00 -1000.00 -1000.00 -1000.00 -1000.00 -1000.00 -1000.00 -1000.00 -1000.00 -1000.00 -1000.00 -1000.00 -1000.00 -1000.00 -1000.00 -1000.00 -1000.00 -1000.00 -1000.00 -1000.00 -1000.00 -1000.00 -1000.00 -1000.00 -1000.00 -1000.00 -1000.00 -1000.00 -1000.00 -1000.00 -1000.00 -1000.00 -1000.00 -1000.00 -1000.00 -1000.00 -1000.00 -1000.00 -1000.00 -1000.00 -1000.00 -1000.00 -1000.00 -1000.00 -1000.00 -1000.00 -1000.00 -1000.00 -1000.00 -1000.00 -1000.00 -1000.00 -1000.00 -1000.00 -1000.00 -1000.00 -1000.00 -1000.00 -1000.00 -1000.00 -1000.00 -1000.00 -1000.00 -1000.00 -1000.00 -1000.00 -1000.00 -1000.00 -1000.00 -1000.00 -1000.00 -1000.00 136.47 136.47 136.79 136.79 129.58 133.75 133.75 140.24 140.24 143.11 143.11 138.47 140.49 140.49 143.00 143.00 146.64 146.64 145.73 145.73 144.48 149.61 149.61 147.62 147.62 149.20 149.20 150.87 150.42 150.42 151.61 151.61 154.28 154.28 155.49 155.49 155.23 157.07 157.07 157.75 157.75 156.39 156.39 155.67 155.55 155.55 155.23 155.23 154.95 154.95 154.95 154.95 155.41 156.58 156.58 158.64 158.64 -1000.00 -1000.00 -1000.00 -1000.00 -1000.00 -1000.00 -1000.00 -1000.00 -1000.00 -1000.00 -1000.00 -1000.00 
-1000.00 -1000.00 -1000.00 -1000.00 -1000.00 -1000.00 -1000.00 -1000.00 -1000.00 -1000.00 -1000.00 -1000.00 -1000.00 -1000.00 -1000.00 -1000.00 -1000.00 -1000.00 -1000.00 -1000.00 -1000.00 -1000.00 -1000.00 -1000.00 -1000.00 -1000.00 -1000.00 -1000.00 -1000.00 -1000.00 -1000.00 -1000.00 -1000.00 -1000.00 -1000.00 -1000.00 -1000.00 -1000.00 -1000.00 -1000.00 -1000.00 -1000.00 -1000.00 -1000.00 -1000.00 -1000.00 -1000.00 -1000.00 -1000.00 -1000.00 -1000.00 -1000.00 -1000.00 -1000.00 -1000.00 -1000.00 -1000.00 -1000.00 -1000.00 -1000.00 -1000.00 -1000.00 -1000.00 -1000.00 -1000.00 -1000.00 -1000.00 -1000.00 -1000.00 -1000.00 -1000.00 -1000.00 -1000.00 -1000.00 -1000.00 -1000.00 -1000.00 -1000.00 -1000.00 -1000.00 -1000.00 -1000.00 -1000.00 -1000.00 -1000.00 -1000.00 -1000.00 -1000.00 -1000.00 -1000.00 -1000.00 -1000.00 136.47 136.47 136.79 136.79 129.58 133.75 133.75 140.24 140.24 143.11 143.11 138.47 140.49 140.49 143.00 143.00 146.64 146.64 145.73 145.73 144.48 149.61 149.61 147.62 147.62 149.20 149.20 150.87 150.42 150.42 151.61 151.61 154.28 154.28 155.49 155.49 155.23 157.07 157.07 157.75 157.75 156.39 156.39 155.67 155.55 155.55 155.23 155.23 154.95 154.95 154.95 154.95 155.41 156.58 156.58 158.64 158.64 -1000.00 -1000.00 -1000.00 -1000.00 -1000.00 -1000.00 -1000.00 -1000.00 -1000.00 -1000.00 -1000.00 -1000.00 
-1000.00 -1000.00 -1000.00 -1000.00 -1000.00 -1000.00 -1000.00 -1000.00 -1000.00 -1000.00 -1000.00 -1000.00 -1000.00 -1000.00 -1000.00 -1000.00 -1000.00 -1000.00 -1000.00 -1000.00 -1000.00 -1000.00 -1000.00 -1000.00 -1000.00 -1000.00 -1000.00 -1000.00 -1000.00 -1000.00 -1000.00 -1000.00 -1000.00 -1000.00 -1000.00 -1000.00 -1000.00 -1000.00 -1000.00 -1000.00 -1000.00 -1000.00 -1000.00 -1000.00 -1000.00 -1000.00 -1000.00 -1000.00 -1000.00 -1000.00 -1000.00 -1000.00 -1000.00 -1000.00 -1000.00 -1000.00 -1000.00 -1000.00 -1000.00 -1000.00 -1000.00 -1000.00 -1000.00 -1000.00 -1000.00 -1000.00 -1000.00 -1000.00 -1000.00 -1000.00 -1000.00 -1000.00 -1000.00 -1000.00 -1000.00 -1000.00 -1000.00 -1000.00 -1000.00 -1000.00 -1000.00 -1000.00 -1000.00 -1000.00 -1000.00 -1000.00 -1000.00 -1000.00 138.71 138.71 134.45 134.45 131.92 131.92 129.37 129.37 133.20 135.77 135.77 143.69 143.69 146.40 146.40 140.90 142.80 142.80 142.61 142.61 145.57 145.57 145.33 145.33 145.11 150.07 150.07 146.59 146.59 150.37 150.37 151.45 150.84 150.84 153.23 153.23 154.57 154.57 155.08 155.08 154.76 156.27 156.27 156.22 156.22 155.68 155.68 155.17 154.64 154.64 154.14 154.14 153.99 153.99 154.07 154.07 154.66 155.72 155.72 156.67 156.67 156.69 156.69 -1000.00 -1000.00 -1000.00 -1000.00 -1000.00 -1000.00 -1000.00 -1000.00 -1000.00 -1000.00 
-1000.00 -1000.00 -1000.00 -1000.00 -1000.00 -1000.00 -1000.00 -1000.00 -1000.00 -1000.00 -1000.00 -1000.00 -1000.00 -1000.00 -1000.00 -1000.00 -1000.00 -1000.00 -1000.00 -1000.00 -1000.00 -1000.00 -1000.00 -1000.00 -1000.00 -1000.00 -1000.00 -1000.00 -1000.00 -1000.00 -1000.00 -1000.00 -1000.00 -1000.00 -1000.00 -1000.00 -1000.00 -1000.00 -1000.00 -1000.00 -1000.00 -1000.00 -1000.00 -1000.00 -1000.00 -1000.00 -1000.00 -1000.00 -1000.00 -1000.00 -1000.00 -1000.00 -1000.00 -1000.00 -1000.00 -1000.00 -1000.00 -1000.00 -1000.00 -1000.00 -1000.00 -1000.00 -1000.00 -1000.00 -1000.00 -1000.00 -1000.00 -1000.00 -1000.00 -1000.00 -1000.00 -1000.00 -1000.00 -1000.00 -1000.00 -1000.00 -1000.00 -1000.00 -1000.00 -1000.00 -1000.00 -1000.00 -1000.00 -1000.00 -1000.00 -1000.00 -1000.00 -1000.00 138.71 138.71 134.45 134.45 131.92 131.92 129.37 129.37 133.20 135.77 135.77 143.69 143.69 146.40 146.40 140.90 142.80 142.80 142.61 142.61 145.57 145.57 145.33 145.33 145.11 150.07 150.07 146.59 146.59 150.37 150.37 151.45 150.84 150.84 153.23 153.23 154.57 154.57 155.08 155.08 154.76 156.27 156.27 156.22 156.22 155.68 155.68 155.17 154.64 154.64 154.14 154.14 153.99 153.99 154.07 154.07 154.66 155.72 155.72 156.67 156.67 156.69 156.69 -1000.00 -1000.00 -1000.00 -1000.00 -1000.00 -1000.00 -1000.00 -1000.00 -1000.00 -1000.00 
-1000.00 -1000.00 -1000.00 -1000.00 -1000.00 -1000.00 -1000.00 -1000.00 -1000.00 -1000.00 -1000.00 -1000.00 -1000.00 -1000.00 -1000.00 -1000.00 -1000.00 -1000.00 -1000.00 -1000.00 -1000.00 -1000.00 -1000.00 -1000.00 -1000.00 -1000.00 -1000.00 -1000.00 -1000.00 -1000.00 -1000.00 -1000.00 -1000.00 -1000.00 -1000.00 -1000.00 -1000.00 -1000.00 -1000.00 -1000.00 -1000.00 -1000.00 -1000.00 -1000.00 -1000.00 -1000.00 -1000.00 -1000.00 -1000.00 -1000.00 -1000.00 -1000.00 -1000.00 -1000.00 -1000.00 -1000.00 -1000.00 -1000.00 -1000.00 -1000.00 -1000.00 -1000.00 -1000.00 -1000.00 -1000.00 -1000.00 -1000.00 -1000.00 -1000.00 -1000.00 -1000.00 -1000.00 -1000.00 -1000.00 -1000.00 -1000.00 -1000.00 -1000.00 -1000.00 -1000.00 -1000.00 -1000.00 -1000.00 -1000.00 -1000.00 -1000.00 -1000.00 138.47 134.82 134.82 131.69 131.69 129.87 129.87 128.20 128.20 135.53 135.63 135.63 135.38 135.38 138.96 138.96 142.06 145.39 145.39 140.64 140.64 135.57 135.57 138.30 138.30 147.73 148.05 148.05 148.26 148.26 148.68 148.68 150.12 151.66 151.66 159.98 159.98 153.72 153.72 152.47 152.47 153.74 153.67 153.67 154.38 154.38 154.80 154.80 154.66 153.86 153.86 152.50 152.50 152.96 152.96 152.89 152.89 153.24 154.57 154.57 155.88 155.88 156.70 156.70 -1000.00 -1000.00 -1000.00 -1000.00 -1000.00 -1000.00 -1000.00 -1000.00 -1000.00 -1000.00 
-1000.00 -1000.00 -1000.00 -1000.00 -1000.00 -1000.00 -1000.00 -1000.00 -1000.00 -1000.00 -1000.00 -1000.00 -1000.00 -1000.00 -1000.00 -1000.00 -1000.00 -1000.00 -1000.00 -1000.00 -1000.00 -1000.00 -1000.00 -1000.00 -1000.00 -1000.00 -1000.00 -1000.00 -1000.00 -1000.00 -1000.00 -1000.00 -1000.00 -1000.00 -1000.00 -1000.00 -1000.00 -1000.00 -1000.00 -1000.00 -1000.00 -1000.00 -1000.00 -1000.00 -1000.00 -1000.00 -1000.00 -1000.00 -1000.00 -1000.00 -1000.00 -1000.00 -1000.00 -1000.00 -1000.00 -1000.00 -1000.00 -1000.00 -1000.00 -1000.00 -1000.00 -1000.00 -1000.00 -1000.00 -1000.00 -1000.00 -1000.00 -1000.00 -1000.00 -1000.00 -1000.00 -1000.00 -1000.00 -1000.00 -1000.00 -1000.00 -1000.00 -1000.00 -1000.00 -1000.00 -1000.00 -1000.00 -1000.00 -1000.00 -1000.00 -1000.00 -1000.00 138.47 134.82 134.82 131.69 131.69 129.87 129.87 128.20 128.20 135.53 135.63 135.63 135.38 135.38 138.96 138.96 142.06 145.39 145.39 140.64 140.64 135.57 135.57 138.30 138.30 147.73 148.05 148.05 148.26 148.26 148.68 148.68 150.12 151.66 151.66 159.98 159.98 153.72 153.72 152.47 152.47 153.74 153.67 153.67 154.38 154.38 154.80 154.80 154.66 153.86 153.86 152.50 152.50 152.96 152.96 152.89 152.89 153.24 154.57 154.57 155.88 155.88 156.70 156.70 -1000.00 -1000.00 -1000.00 -1000.00 -1000.00 -1000.00 -1000.00 -1000.00 -1000.00 -1000.00 
-1000.00 -1000.00 -1000.00 -1000.00 -1000.00 -1000.00 -1000.00 -1000.00 -1000.00 -1000.00 -1000.00 -1000.00 -1000.00 -1000.00 -1000.00 -1000.00 -1000.00 -1000.00 -1000.00 -1000.00 -1000.00 -1000.00 -1000.00 -1000.00 -1000.00 -1000.00 -1000.00 -1000.00 -1000.00 -1000.00 -1000.00 -1000.00 -1000.00 -1000.00 -1000.00 -1000.00 -1000.00 -1000.00 -1000.00 -1000.00 -1000.00 -1000.00 -1000.00 -1000.00 -1000.00 -1000.00 -1000.00 -1000.00 -1000.00 -1000.00 -1000.00 -1000.00 -1000.00 -1000.00 -1000.00 -1000.00 -1000.00 -1000.00 -1000.00 -1000.00 -1000.00 -1000.00 -1000.00 -1000.00 -1000.00 -1000.00 -1000.00 -1000.00 -1000.00 -1000.00 -1000.00 -1000.00 -1000.00 -1000.00 -1000.00 -1000.00 -1000.00 -1000.00 -1000.00 -1000.00 -1000.00 -1000.00 -1000.00 129.97 129.97 129.29 129.29 130.54 130.02 130.02 129.06 129.06 129.03 129.03 130.55 130.55 133.11 134.13 134.13 130.15 130.15 135.86 135.86 139.02 139.30 139.30 134.83 134.83 133.93 133.93 142.07 142.07 145.72 145.07 145.07 146.17 146.17 146.79 146.79 149.40 149.59 149.59 153.00 153.00 151.99 151.99 151.50 151.50 152.36 152.57 152.57 153.33 153.33 154.38 154.38 154.78 153.95 153.95 152.51 152.51 153.88 153.88 152.76 152.76 151.67 153.74 153.74 155.68 155.68 157.00 157.00 158.07 158.07 -1000.00 -1000.00 -1000.00 -1000.00 -1000.00 -1000.00 -1000.00 -1000.00 
-1000.00 -1000.00 -1000.00 -1000.00 -1000.00 -1000.00 -1000.00 -1000.00 -1000.00 -1000.00 -1000.00 -1000.00 -1000.00 -1000.00 -1000.00 -1000.00 -1000.00 -1000.00 -1000.00 -1000.00 -1000.00 -1000.00 -1000.00 -1000.00 -1000.00 -1000.00 -1000.00 -1000.00 -1000.00 -1000.00 -1000.00 -1000.00 -1000.00 -1000.00 -1000.00 -1000.00 -1000.00 -1000.00 -1000.00 -1000.00 -1000.00 -1000.00 -1000.00 -1000.00 -1000.00 -1000.00 -1000.00 -1000.00 -1000.00 -1000.00 -1000.00 -1000.00 -1000.00 -1000.00 -1000.00 -1000.00 -1000.00 -1000.00 -1000.00 -1000.00 -1000.00 -1000.00 -1000.00 -1000.00 -1000.00 -1000.00 -1000.00 -1000.00 -1000.00 -1000.00 -1000.00 -1000.00 -1000.00 -1000.00 -1000.00 -1000.00 -1000.00 -1000.00 -1000.00 -1000.00 -1000.00 -1000.00 -1000.00 129.97 129.97 129.29 129.29 130.54 130.02 130.02 129.06 129.06 129.03 129.03 130.55 130.55 133.11 134.13 134.13 130.15 130.15 135.86 135.86 139.02 139.30 139.30 134.83 134.83 133.93 133.93 142.07 142.07 145.72 145.07 145.07 146.17 146.17 146.79 146.79 149.40 149.59 149.59 153.00 153.00 151.99 151.99 151.50 151.50 152.36 152.57 152.57 153.33 153.33 154.38 154.38 154.78 153.95 153.95 152.51 152.51 153.88 153.88 152.76 152.76 151.67 153.74 153.74 155.68 155.68 157.00 157.00 158.07 158.07 -1000.00 -1000.00 -1000.00 -1000.00 -1000.00 -1000.00 -1000.00 -1000.00 
-1000.00 -1000.00 -1000.00 -1000.00 -1000.00 -1000.00 -1000.00 -1000.00 -1000.00 -1000.00 -1000.00 -1000.00 -1000.00 -1000.00 -1000.00 -1000.00 -1000.00 -1000.00 -1000.00 -1000.00 -1000.00 -1000.00 -1000.00 -1000.00 -1000.00 -1000.00 -1000.00 -1000.00 -1000.00 -1000.00 -1000.00 -1000.00 -1000.00 -1000.00 -1000.00 -1000.00 -1000.00 -1000.00 -1000.00 -1000.00 -1000.00 -1000.00 -1000.00 -1000.00 -1000.00 -1000.00 -1000.00 -1000.00 -1000.00 -1000.00 -1000.00 -1000.00 -1000.00 -1000.00 -1000.00 -1000.00 -1000.00 -1000.00 -1000.00 -1000.00 -1000.00 -1000.00 -1000.00 -1000.00 -1000.00 -1000.00 -1000.00 -1000.00 -1000.00 -1000.00 -1000.00 -1000.00 -1000.00 -1000.00 -1000.00 -1000.00 -1000.00 -1000.00 -1000.00 128.64 128.64 128.10 128.10 128.07 128.07 129.76 129.76 127.89 126.60 126.60 126.07 126.07 126.45 126.45 130.83 130.83 132.48 133.85 133.85 129.00 129.00 135.02 135.02 136.16 138.00 138.00 140.15 140.15 140.31 140.31 142.45 142.45 142.70 144.31 144.31 145.08 145.08 147.04 147.04 150.42 149.31 149.31 150.02 150.02 151.54 151.54 152.16 152.16 152.75 153.38 153.38 151.59 151.59 154.98 154.98 156.34 154.67 154.67 156.12 156.12 155.35 155.35 153.13 153.13 153.12 154.97 154.97 156.10 156.10 157.45 157.45 160.26 160.26 -1000.00 -1000.00 -1000.00 -1000.00 -1000.00 -1000.00 -1000.00 -1000.00 
-1000.00 -1000.00 -1000.00 -1000.00 -1000.00 -1000.00 -1000.00 -1000.00 -1000.00 -1000.00 -1000.00 -1000.00 -1000.00 -1000.00 -1000.00 -1000.00 -1000.00 -1000.00 -1000.00 -1000.00 -1000.00 -1000.00 -1000.00 -1000.00 -1000.00 -1000.00 -1000.00 -1000.00 -1000.00 -1000.00 -1000.00 -1000.00 -1000.00 -1000.00 -1000.00 -1000.00 -1000.00 -1000.00 -1000.00 -1000.00 -1000.00 -1000.00 -1000.00 -1000.00 -1000.00 -1000.00 -1000.00 -1000.00 -1000.00 -1000.00 -1000.00 -1000.00 -1000.00 -1000.00 -1000.00 -1000.00 -1000.00 -1000.00 -1000.00 -1000.00 -1000.00 -1000.00 -1000.00 -1000.00 -1000.00 -1000.00 -1000.00 -1000.00 -1000.00 -1000.00 -1000.00 -1000.00 -1000.00 -1000.00 -1000.00 -1000.00 123.91 123.91 126.95 127.41 127.41 126.56 126.56 125.21 125.21 124.05 124.05 123.52 123.11 123.11 122.66 122.66 123.15 123.15 129.45 129.45 130.44 130.57 130.57 129.77 129.77 134.92 134.92 135.51 138.28 138.28 141.26 141.26 140.99 140.99 139.53 139.53 139.76 143.93 143.93 144.18 144.18 146.66 146.66 151.77 149.29 149.29 149.54 149.54 151.08 151.08 150.71 150.71 152.23 151.41 151.41 151.65 151.65 157.71 157.71 159.17 157.77 157.77 158.81 158.81 152.27 152.27 152.46 152.46 157.66 157.69 157.69 156.49 156.49 155.72 155.72 159.43 159.43 -1000.00 -1000.00 -1000.00 -1000.00 -1000.00 -1000.00 -1000.00 -1000.00 
-1000.00 -1000.00 -1000.00 -1000.00 -1000.00 -1000.00 -1000.00 -1000.00 -1000.00 -1000.00 -1000.00 -1000.00 -1000.00 -1000.00 -1000.00 -1000.00 -1000.00 -1000.00 -1000.00 -1000.00 -1000.00 -1000.00 -1000.00 -1000.00 -1000.00 -1000.00 -1000.00 -1000.00 -1000.00 -1000.00 -1000.00 -1000.00 -1000.00 -1000.00 -1000.00 -1000.00 -1000.00 -1000.00 -1000.00 -1000.00 -1000.00 -1000.00 -1000.00 -1000.00 -1000.00 -1000.00 -1000.00 -1000.00 -1000.00 -1000.00 -1000.00 -1000.00 -1000.00 -1000.00 -1000.00 -1000.00 -1000.00 -1000.00 -1000.00 -1000.00 -1000.00 -1000.00 -1000.00 -1000.00 -1000.00 -1000.00 -1000.00 -1000.00 -1000.00 -1000.00 -1000.00 -1000.00 -1000.00 -1000.00 -1000.00 -1000.00 123.91 123.91 126.95 127.41 127.41 126.56 126.56 125.21 125.21 124.05 124.05 123.52 123.11 123.11 122.66 122.66 123.15 123.15 129.45 129.45 130.44 130.57 130.57 129.77 129.77 134.92 134.92 135.51 138.28 138.28 141.26 141.26 140.99 140.99 139.53 139.53 139.76 143.93 143.93 144.18 144.18 146.66 146.66 151.77 149.29 149.29 149.54 149.54 151.08 151.08 150.71 150.71 152.23 151.41 151.41 151.65 151.65 157.71 157.71 159.17 157.77 157.77 158.81 158.81 152.27 152.27 152.46 152.46 157.66 157.69 157.69 156.49 156.49 155.72 155.72 159.43 159.43 -1000.00 -1000.00 -1000.00 -1000.00 -1000.00 -1000.00 -1000.00 -1000.00 
-1000.00 -1000.00 -1000.00 -1000.00 -1000.00 -1000.00 -1000.00 -1000.00 -1000.00 -1000.00 -1000.00 -1000.00 -1000.00 -1000.00 -1000.00 -1000.00 -1000.00 -1000.00 -1000.00 -1000.00 -1000.00 -1000.00 -1000.00 -1000.00 -1000.00 -1000.00 -1000.00 -1000.00 -1000.00 -1000.00 -1000.00 -1000.00 -1000.00 -1000.00 -1000.00 -1000.00 -1000.00 -1000.00 -1000.00 -1000.00 -1000.00 -1000.00 -1000.00 -1000.00 -1000.00 -1000.00 -1000.00 -1000.00 -1000.00 -1000.00 -1000.00 -1000.00 -1000.00 -1000.00 -1000.00 -1000.00 -1000.00 -1000.00 -1000.00 -1000.00 -1000.00 -1000.00 -1000.00 -1000.00 -1000.00 -1000.00 -1000.00 -1000.00 -1000.00 -1000.00 -1000.00 -1000.00 130.64 130.64 127.96 127.96 127.17 127.17 129.39 127.64 127.64 126.07 126.07 122.55 122.55 118.06 118.06 119.75 119.90 119.90 118.44 118.44 116.72 116.72 127.32 127.32 130.10 130.58 130.58 131.93 131.93 134.51 134.51 136.28 135.71 135.71 137.23 137.23 139.24 139.24 140.22 140.22 138.67 142.19 142.19 144.03 144.03 146.45 146.45 150.02 145.71 145.71 148.96 148.96 150.29 150.29 149.76 149.76 152.41 151.65 151.65 156.00 156.00 159.69 159.69 160.31 159.64 159.64 159.55 159.55 150.06 150.06 152.30 152.30 158.14 158.60 158.60 157.12 157.12 155.08 155.08 156.31 156.31 158.11 -1000.00 -1000.00 -1000.00 -1000.00 -1000.00 -1000.00 -1000.00 
-1000.00 -1000.00 -1000.00 -1000.00 -1000.00 -1000.00 -1000.00 -1000.00 -1000.00 -1000.00 -1000.00 -1000.00 -1000.00 -1000.00 -1000.00 -1000.00 -1000.00 -1000.00 -1000.00 -1000.00 -1000.00 -1000.00 -1000.00 -1000.00 -1000.00 -1000.00 -1000.00 -1000.00 -1000.00 -1000.00 -1000.00 -1000.00 -1000.00 -1000.00 -1000.00 -1000.00 -1000.00 -1000.00 -1000.00 -1000.00 -1000.00 -1000.00 -1000.00 -1000.00 -1000.00 -1000.00 -1000.00 -1000.00 -1000.00 -1000.00 -1000.00 -1000.00 -1000.00 -1000.00 -1000.00 -1000.00 -1000.00 -1000.00 -1000.00 -1000.00 -1000.00 -1000.00 -1000.00 -1000.00 -1000.00 -1000.00 -1000.00 -1000.00 -1000.00 -1000.00 -1000.00 -1000.00 130.64 130.64 127.96 127.96 127.17 127.17 129.39 127.64 127.64 126.07 126.07 122.55 122.55 118.06 118.06 119.75 119.90 119.90 118.44 118.44 116.72 116.72 127.32 127.32 130.10 130.58 130.58 131.93 131.93 134.51 134.51 136.28 135.71 135.71 137.23 137.23 139.24 139.24 140.22 140.22 138.67 142.19 142.19 144.03 144.03 146.45 146.45 150.02 145.71 145.71 148.96 148.96 150.29 150.29 149.76 149.76 152.41 151.65 151.65 156.00 156.00 159.69 159.69 160.31 159.64 159.64 159.55 159.55 150.06 150.06 152.30 152.30 158.14 158.60 158.60 157.12 157.12 155.08 155.08 156.31 156.31 158.11 -1000.00 -1000.00 -1000.00 -1000.00 -1000.00 -1000.00 -1000.00 
-1000.00 -1000.00 -1000.00 -1000.00 -1000.00 -1000.00 -1000.00 -1000.00 -1000.00 -1000.00 -1000.00 -1000.00 -1000.00 -1000.00 -1000.00 -1000.00 -1000.00 -1000.00 -1000.00 -1000.00 -1000.00 -1000.00 -1000.00 -1000.00 -1000.00 -1000.00 -1000.00 -1000.00 -1000.00 -1000.00 -1000.00 -1000.00 -1000.00 -1000.00 -1000.00 -1000.00 -1000.00 -1000.00 -1000.00 -1000.00 -1000.00 -1000.00 -1000.00 -1000.00 -1000.00 -1000.00 -1000.00 -1000.00 -1000.00 -1000.00 -1000.00 -1000.00 -1000.00 -1000.00 -1000.00 -1000.00 -1000.00 -1000.00 -1000.00 -1000.00 -1000.00 -1000.00 -1000.00 -1000.00 -1000.00 -1000.00 -1000.00 -1000.00 -1000.00 -1000.00 -1000.00 135.65 132.69 132.69 135.12 135.12 133.81 133.81 133.03 132.08 132.08 129.11 129.11 119.69 119.69 118.44 118.44 122.83 115.86 115.86 115.64 115.64 114.19 114.19 128.42 128.42 131.80 129.57 129.57 129.19 129.19 135.32 135.32 136.82 137.84 137.84 136.62 136.62 137.26 137.26 138.75 138.75 140.41 141.56 141.56 142.85 142.85 145.20 145.20 144.67 144.88 144.88 148.19 148.19 149.43 149.43 149.62 149.62 153.07 154.26 154.26 156.37 156.37 158.75 158.75 158.86 157.83 157.83 159.79 159.79 153.69 153.69 154.97 154.97 157.92 158.73 158.73 158.20 158.20 158.05 158.05 157.88 157.88 158.27 -1000.00 -1000.00 -1000.00 -1000.00 -1000.00 -1000.00 -1000.00 