# vtk DataFile Version 3.0
GRASS 6 Export
ASCII
DATASET STRUCTURED_POINTS
DIMENSIONS 162 144 1
SPACING 200.000000 200.000000 0.000000
ORIGIN 587861.400000 1677789.600000 -1000.000000
CELL_DATA 23023
SCALARS dir_slope_horn81@PERMANENT float 1
LOOKUP_TABLE default
-1000.00 -1000.00 -1000.00 -1000.00 -1000.00 -1000.00 -1000.00 -1000.00 -1000.00 -1000.00 -1000.00 -1000.00 -1000.00 -1000.00 -1000.00 -1000.00 -1000.00 -1000.00 -1000.00 -1000.00 -1000.00 -1000.00 -1000.00 -1000.00 -1000.00 -1000.00 -1000.00 -1000.00 -1000.00 -1000.00 -1000.00 -1000.00 -1000.00 -1000.00 -1000.00 -1000.00 -1000.00 -1000.00 -1000.00 -1000.00 -1000.00 -1000.00 -1000.00 -1000.00 -1000.00 -1000.00 -1000.00 -1000.00 -1000.00 -1000.00 -1000.00 -1000.00 -1000.00 -1000.00 -1000.00 -1000.00 -1000.00 -1000.00 -1000.00 -1000.00 -1000.00 -1000.00 -1000.00 -1000.00 -1000.00 -1000.00 -1000.00 -1000.00 -1000.00 -1000.00 -1000.00 -1000.00 -1000.00 -1000.00 -1000.00 -1000.00 -1000.00 -1000.00 -1000.00 -1000.00 -1000.00 -1000.00 -1000.00 -1000.00 -1000.00 -1000.00 -1000.00 -1000.00 -1000.00 -1000.00 -1000.00 -1000.00 -1000.00 -1000.00 -1000.00 -1000.00 -1000.00 -1000.00 -1000.00 -1000.00 -1000.00 -1000.00 -1000.00 -1000.00 -1000.00 -0.12 -0.11 -0.05 -0.01 -0.07 -0.11 -0.06 -0.08 -0.13 -0.05 0.01 0.00 -0.02 -0.08 -0.06 -0.07 -0.12 -0.05 -0.05 -0.06 -0.06 -0.05 0.02 0.00 0.00 0.00 -0.09 -0.13 -0.12 -0.12 -0.05 -0.06 -1000.00 -1000.00 -1000.00 -1000.00 -1000.00 -1000.00 -1000.00 -1000.00 -1000.00 -1000.00 -1000.00 -1000.00 -1000.00 -1000.00 -1000.00 -1000.00 -1000.00 -1000.00 -1000.00 -1000.00 -1000.00 -1000.00 -1000.00 -1000.00 
-1000.00 -1000.00 -1000.00 -1000.00 -1000.00 -1000.00 -1000.00 -1000.00 -1000.00 -1000.00 -1000.00 -1000.00 -1000.00 -1000.00 -1000.00 -1000.00 -1000.00 -1000.00 -1000.00 -1000.00 -1000.00 -1000.00 -1000.00 -1000.00 -1000.00 -1000.00 -1000.00 -1000.00 -1000.00 -1000.00 -1000.00 -1000.00 -1000.00 -1000.00 -1000.00 -1000.00 -1000.00 -1000.00 -1000.00 -1000.00 -1000.00 -1000.00 -1000.00 -1000.00 -1000.00 -1000.00 -1000.00 -1000.00 -1000.00 -1000.00 -1000.00 -1000.00 -1000.00 -1000.00 -1000.00 -1000.00 -1000.00 -1000.00 -1000.00 -1000.00 -1000.00 -1000.00 -1000.00 -1000.00 -1000.00 -1000.00 -1000.00 -1000.00 -1000.00 -1000.00 -1000.00 -1000.00 -1000.00 -1000.00 -1000.00 -1000.00 -1000.00 -1000.00 -1000.00 -1000.00 -1000.00 -1000.00 -1000.00 -1000.00 -1000.00 -1000.00 -1000.00 -1000.00 -1000.00 -1000.00 -1000.00 -1000.00 -1000.00 -1000.00 -1000.00 -1000.00 -1000.00 -1000.00 -1000.00 -1000.00 -1000.00 -1000.00 -1000.00 -1000.00 -1000.00 -0.18 -0.22 -0.21 -0.08 -0.08 -0.16 -0.12 -0.09 -0.13 -0.10 -0.10 -0.13 -0.10 -0.10 -0.08 -0.05 -0.06 -0.03 -0.06 -0.06 -0.06 -0.06 -0.01 0.00 0.00 0.00 -0.01 -0.06 -0.06 -0.06 -0.01 0.01 -1000.00 -1000.00 -1000.00 -1000.00 -1000.00 -1000.00 -1000.00 -1000.00 -1000.00 -1000.00 -1000.00 -1000.00 -1000.00 -1000.00 -1000.00 -1000.00 -1000.00 -1000.00 -1000.00 -1000.00 -1000.00 -1000.00 -1000.00 -1000.00 
-1000.00 -1000.00 -1000.00 -1000.00 -1000.00 -1000.00 -1000.00 -1000.00 -1000.00 -1000.00 -1000.00 -1000.00 -1000.00 -1000.00 -1000.00 -1000.00 -1000.00 -1000.00 -1000.00 -1000.00 -1000.00 -1000.00 -1000.00 -1000.00 -1000.00 -1000.00 -1000.00 -1000.00 -1000.00 -1000.00 -1000.00 -1000.00 -1000.00 -1000.00 -1000.00 -1000.00 -1000.00 -1000.00 -1000.00 -1000.00 -1000.00 -1000.00 -1000.00 -1000.00 -1000.00 -1000.00 -1000.00 -1000.00 -1000.00 -1000.00 -1000.00 -1000.00 -1000.00 -1000.00 -1000.00 -1000.00 -1000.00 -1000.00 -1000.00 -1000.00 -1000.00 -1000.00 -1000.00 -1000.00 -1000.00 -1000.00 -1000.00 -1000.00 -1000.00 -1000.00 -1000.00 -1000.00 -1000.00 -1000.00 -1000.00 -1000.00 -1000.00 -1000.00 -1000.00 -1000.00 -1000.00 -1000.00 -1000.00 -1000.00 -1000.00 -1000.00 -1000.00 -1000.00 -1000.00 -1000.00 -1000.00 -1000.00 -1000.00 -1000.00 -1000.00 -1000.00 -1000.00 -1000.00 -1000.00 -1000.00 -1000.00 -1000.00 -0.12 -0.07 -0.12 -0.12 -0.17 -0.27 -0.18 -0.07 -0.12 -0.18 -0.14 -0.13 -0.10 -0.10 -0.13 -0.08 -0.02 0.00 -0.01 0.01 0.02 -0.06 -0.06 -0.06 -0.04 0.01 0.00 0.00 -0.01 -0.01 0.03 0.08 0.06 0.01 0.01 0.01 0.01 0.02 -0.02 -1000.00 -1000.00 -1000.00 -1000.00 -1000.00 -1000.00 -1000.00 -1000.00 -1000.00 -1000.00 -1000.00 -1000.00 -1000.00 -1000.00 -1000.00 -1000.00 -1000.00 -1000.00 -1000.00 -1000.00 
-1000.00 -1000.00 -1000.00 -1000.00 -1000.00 -1000.00 -1000.00 -1000.00 -1000.00 -1000.00 -1000.00 -1000.00 -1000.00 -1000.00 -1000.00 -1000.00 -1000.00 -1000.00 -1000.00 -1000.00 -1000.00 -1000.00 -1000.00 -1000.00 -1000.00 -1000.00 -1000.00 -1000.00 -1000.00 -1000.00 -1000.00 -1000.00 -1000.00 -1000.00 -1000.00 -1000.00 -1000.00 -1000.00 -1000.00 -1000.00 -1000.00 -1000.00 -1000.00 -1000.00 -1000.00 -1000.00 -1000.00 -1000.00 -1000.00 -1000.00 -1000.00 -1000.00 -1000.00 -1000.00 -1000.00 -1000.00 -1000.00 -1000.00 -1000.00 -1000.00 -1000.00 -1000.00 -1000.00 -1000.00 -1000.00 -1000.00 -1000.00 -1000.00 -1000.00 -1000.00 -1000.00 -1000.00 -1000.00 -1000.00 -1000.00 -1000.00 -1000.00 -1000.00 -1000.00 -1000.00 -1000.00 -1000.00 -1000.00 -1000.00 -1000.00 -1000.00 -1000.00 -1000.00 -1000.00 -1000.00 -1000.00 -1000.00 -1000.00 -1000.00 -1000.00 -1000.00 -1000.00 -1000.00 -1000.00 -1000.00 -1000.00 -1000.00 -0.12 -0.08 -0.13 -0.18 -0.18 -0.23 -0.28 -0.24 -0.19 -0.17 -0.12 -0.12 -0.09 -0.08 -0.05 0.00 0.00 0.00 -0.06 -0.06 0.02 0.00 0.01 0.01 -0.02 0.01 0.00 0.00 0.02 -0.06 -0.09 -0.06 -0.01 0.01 -0.01 -0.06 -0.06 0.00 0.01 -1000.00 -1000.00 -1000.00 -1000.00 -1000.00 -1000.00 -1000.00 -1000.00 -1000.00 -1000.00 -1000.00 -1000.00 -1000.00 -1000.00 -1000.00 -1000.00 -1000.00 -1000.00 -1000.00 -1000.00 
-1000.00 -1000.00 -1000.00 -1000.00 -1000.00 -1000.00 -1000.00 -1000.00 -1000.00 -1000.00 -1000.00 -1000.00 -1000.00 -1000.00 -1000.00 -1000.00 -1000.00 -1000.00 -1000.00 -1000.00 -1000.00 -1000.00 -1000.00 -1000.00 -1000.00 -1000.00 -1000.00 -1000.00 -1000.00 -1000.00 -1000.00 -1000.00 -1000.00 -1000.00 -1000.00 -1000.00 -1000.00 -1000.00 -1000.00 -1000.00 -1000.00 -1000.00 -1000.00 -1000.00 -1000.00 -1000.00 -1000.00 -1000.00 -1000.00 -1000.00 -1000.00 -1000.00 -1000.00 -1000.00 -1000.00 -1000.00 -1000.00 -1000.00 -1000.00 -1000.00 -1000.00 -1000.00 -1000.00 -1000.00 -1000.00 -1000.00 -1000.00 -1000.00 -1000.00 -1000.00 -1000.00 -1000.00 -1000.00 -1000.00 -1000.00 -1000.00 -1000.00 -1000.00 -1000.00 -1000.00 -1000.00 -1000.00 -1000.00 -1000.00 -1000.00 -1000.00 -1000.00 -1000.00 -1000.00 -1000.00 -1000.00 -1000.00 -1000.00 -1000.00 -1000.00 -1000.00 -1000.00 -1000.00 -1000.00 -1000.00 -0.05 -0.08 -0.12 -0.08 -0.08 -0.12 -0.12 -0.12 -0.17 -0.19 -0.24 -0.28 -0.25 -0.24 -0.14 -0.11 -0.08 0.00 0.00 0.00 -0.06 -0.04 0.05 0.07 0.07 0.05 -0.04 -0.06 -0.06 -0.06 0.02 0.01 -0.04 -0.06 -0.04 0.01 0.04 0.01 -0.01 0.00 0.06 0.06 0.00 -1000.00 -1000.00 -1000.00 -1000.00 -1000.00 -1000.00 -1000.00 -1000.00 -1000.00 -1000.00 -1000.00 -1000.00 -1000.00 -1000.00 -1000.00 -1000.00 -1000.00 -1000.00 
-1000.00 -1000.00 -1000.00 -1000.00 -1000.00 -1000.00 -1000.00 -1000.00 -1000.00 -1000.00 -1000.00 -1000.00 -1000.00 -1000.00 -1000.00 -1000.00 -1000.00 -1000.00 -1000.00 -1000.00 -1000.00 -1000.00 -1000.00 -1000.00 -1000.00 -1000.00 -1000.00 -1000.00 -1000.00 -1000.00 -1000.00 -1000.00 -1000.00 -1000.00 -1000.00 -1000.00 -1000.00 -1000.00 -1000.00 -1000.00 -1000.00 -1000.00 -1000.00 -1000.00 -1000.00 -1000.00 -1000.00 -1000.00 -1000.00 -1000.00 -1000.00 -1000.00 -1000.00 -1000.00 -1000.00 -1000.00 -1000.00 -1000.00 -1000.00 -1000.00 -1000.00 -1000.00 -1000.00 -1000.00 -1000.00 -1000.00 -1000.00 -1000.00 -1000.00 -1000.00 -1000.00 -1000.00 -1000.00 -1000.00 -1000.00 -1000.00 -1000.00 -1000.00 -1000.00 -1000.00 -1000.00 -1000.00 -1000.00 -1000.00 -1000.00 -1000.00 -1000.00 -1000.00 -1000.00 -1000.00 -1000.00 -1000.00 -1000.00 -1000.00 -1000.00 -1000.00 -1000.00 -1000.00 -1000.00 -1000.00 0.02 -0.02 -0.11 -0.07 -0.02 -0.07 -0.12 -0.12 -0.12 -0.08 -0.13 -0.23 -0.22 -0.21 -0.10 -0.02 -0.02 0.00 0.02 0.08 0.05 -0.03 0.00 0.00 0.00 0.02 -0.06 -0.04 0.00 0.00 0.05 0.05 0.00 0.01 -0.06 -0.12 -0.06 0.01 0.02 -0.02 -0.01 0.01 -0.02 -1000.00 -1000.00 -1000.00 -1000.00 -1000.00 -1000.00 -1000.00 -1000.00 -1000.00 -1000.00 -1000.00 -1000.00 -1000.00 -1000.00 -1000.00 -1000.00 -1000.00 -1000.00 
-1000.00 -1000.00 -1000.00 -1000.00 -1000.00 -1000.00 -1000.00 -1000.00 -1000.00 -1000.00 -1000.00 -1000.00 -1000.00 -1000.00 -1000.00 -1000.00 -1000.00 -1000.00 -1000.00 -1000.00 -1000.00 -1000.00 -1000.00 -1000.00 -1000.00 -1000.00 -1000.00 -1000.00 -1000.00 -1000.00 -1000.00 -1000.00 -1000.00 -1000.00 -1000.00 -1000.00 -1000.00 -1000.00 -1000.00 -1000.00 -1000.00 -1000.00 -1000.00 -1000.00 -1000.00 -1000.00 -1000.00 -1000.00 -1000.00 -1000.00 -1000.00 -1000.00 -1000.00 -1000.00 -1000.00 -1000.00 -1000.00 -1000.00 -1000.00 -1000.00 -1000.00 -1000.00 -1000.00 -1000.00 -1000.00 -1000.00 -1000.00 -1000.00 -1000.00 -1000.00 -1000.00 -1000.00 -1000.00 -1000.00 -1000.00 -1000.00 -1000.00 -1000.00 -1000.00 -1000.00 -1000.00 -1000.00 -1000.00 -1000.00 -1000.00 -1000.00 -1000.00 -1000.00 -1000.00 -1000.00 -1000.00 -1000.00 -1000.00 -1000.00 -1000.00 -1000.00 -1000.00 -1000.00 -0.07 -0.07 -0.03 -0.03 -0.11 -0.12 -0.08 -0.08 -0.12 -0.12 -0.12 -0.07 -0.01 0.00 -0.03 -0.01 -0.02 -0.08 -0.10 -0.03 0.05 0.10 0.08 -0.04 -0.06 -0.06 -0.06 0.02 0.00 -0.03 0.00 0.00 0.00 0.02 -0.06 -0.06 -0.03 -0.04 -0.02 -0.01 -0.02 -0.06 -0.05 -0.04 -0.05 -0.05 -1000.00 -1000.00 -1000.00 -1000.00 -1000.00 -1000.00 -1000.00 -1000.00 -1000.00 -1000.00 -1000.00 -1000.00 -1000.00 -1000.00 -1000.00 -1000.00 -1000.00 
-1000.00 -1000.00 -1000.00 -1000.00 -1000.00 -1000.00 -1000.00 -1000.00 -1000.00 -1000.00 -1000.00 -1000.00 -1000.00 -1000.00 -1000.00 -1000.00 -1000.00 -1000.00 -1000.00 -1000.00 -1000.00 -1000.00 -1000.00 -1000.00 -1000.00 -1000.00 -1000.00 -1000.00 -1000.00 -1000.00 -1000.00 -1000.00 -1000.00 -1000.00 -1000.00 -1000.00 -1000.00 -1000.00 -1000.00 -1000.00 -1000.00 -1000.00 -1000.00 -1000.00 -1000.00 -1000.00 -1000.00 -1000.00 -1000.00 -1000.00 -1000.00 -1000.00 -1000.00 -1000.00 -1000.00 -1000.00 -1000.00 -1000.00 -1000.00 -1000.00 -1000.00 -1000.00 -1000.00 -1000.00 -1000.00 -1000.00 -1000.00 -1000.00 -1000.00 -1000.00 -1000.00 -1000.00 -1000.00 -1000.00 -1000.00 -1000.00 -1000.00 -1000.00 -1000.00 -1000.00 -1000.00 -1000.00 -1000.00 -1000.00 -1000.00 -1000.00 -1000.00 -1000.00 -1000.00 -1000.00 -1000.00 -1000.00 -1000.00 -1000.00 -1000.00 -1000.00 -1000.00 -1000.00 -0.06 -0.06 -0.01 0.03 -0.11 -0.16 -0.07 -0.07 -0.05 0.00 0.00 0.00 0.01 0.07 0.03 -0.02 -0.05 -0.10 -0.08 -0.07 -0.08 -0.10 -0.05 -0.07 -0.05 -0.00 -0.01 -0.01 0.00 -0.04 -0.06 -0.06 -0.06 0.02 0.01 0.00 0.05 0.04 0.03 0.02 0.01 -0.01 -0.02 0.01 -0.01 -0.02 -1000.00 -1000.00 -1000.00 -1000.00 -1000.00 -1000.00 -1000.00 -1000.00 -1000.00 -1000.00 -1000.00 -1000.00 -1000.00 -1000.00 -1000.00 -1000.00 -1000.00 
-1000.00 -1000.00 -1000.00 -1000.00 -1000.00 -1000.00 -1000.00 -1000.00 -1000.00 -1000.00 -1000.00 -1000.00 -1000.00 -1000.00 -1000.00 -1000.00 -1000.00 -1000.00 -1000.00 -1000.00 -1000.00 -1000.00 -1000.00 -1000.00 -1000.00 -1000.00 -1000.00 -1000.00 -1000.00 -1000.00 -1000.00 -1000.00 -1000.00 -1000.00 -1000.00 -1000.00 -1000.00 -1000.00 -1000.00 -1000.00 -1000.00 -1000.00 -1000.00 -1000.00 -1000.00 -1000.00 -1000.00 -1000.00 -1000.00 -1000.00 -1000.00 -1000.00 -1000.00 -1000.00 -1000.00 -1000.00 -1000.00 -1000.00 -1000.00 -1000.00 -1000.00 -1000.00 -1000.00 -1000.00 -1000.00 -1000.00 -1000.00 -1000.00 -1000.00 -1000.00 -1000.00 -1000.00 -1000.00 -1000.00 -1000.00 -1000.00 -1000.00 -1000.00 -1000.00 -1000.00 -1000.00 -1000.00 -1000.00 -1000.00 -1000.00 -1000.00 -1000.00 -1000.00 -1000.00 -1000.00 -1000.00 -1000.00 -1000.00 -1000.00 -1000.00 -1000.00 -1000.00 -0.20 -0.10 -0.06 -0.06 0.06 -0.03 -0.15 -0.06 -0.05 -0.04 0.00 0.00 0.01 0.03 0.08 0.07 0.03 0.07 0.08 0.03 -0.04 -0.10 -0.08 -0.02 -0.01 -0.04 -0.01 0.03 0.00 -0.01 -0.06 -0.04 0.01 0.01 0.06 0.06 0.01 0.01 -0.04 -0.06 -0.02 -0.01 0.01 -0.02 -0.00 0.01 -0.02 -0.01 0.01 0.03 0.05 -1000.00 -1000.00 -1000.00 -1000.00 -1000.00 -1000.00 -1000.00 -1000.00 -1000.00 -1000.00 -1000.00 -1000.00 -1000.00 
-1000.00 -1000.00 -1000.00 -1000.00 -1000.00 -1000.00 -1000.00 -1000.00 -1000.00 -1000.00 -1000.00 -1000.00 -1000.00 -1000.00 -1000.00 -1000.00 -1000.00 -1000.00 -1000.00 -1000.00 -1000.00 -1000.00 -1000.00 -1000.00 -1000.00 -1000.00 -1000.00 -1000.00 -1000.00 -1000.00 -1000.00 -1000.00 -1000.00 -1000.00 -1000.00 -1000.00 -1000.00 -1000.00 -1000.00 -1000.00 -1000.00 -1000.00 -1000.00 -1000.00 -1000.00 -1000.00 -1000.00 -1000.00 -1000.00 -1000.00 -1000.00 -1000.00 -1000.00 -1000.00 -1000.00 -1000.00 -1000.00 -1000.00 -1000.00 -1000.00 -1000.00 -1000.00 -1000.00 -1000.00 -1000.00 -1000.00 -1000.00 -1000.00 -1000.00 -1000.00 -1000.00 -1000.00 -1000.00 -1000.00 -1000.00 -1000.00 -1000.00 -1000.00 -1000.00 -1000.00 -1000.00 -1000.00 -1000.00 -1000.00 -1000.00 -1000.00 -1000.00 -1000.00 -1000.00 -1000.00 -1000.00 -1000.00 -1000.00 0.00 -0.05 -0.20 -0.20 -0.15 -0.10 -0.06 -0.11 0.02 0.08 -0.00 0.00 0.01 0.01 0.01 0.07 0.08 0.03 0.01 0.00 -0.02 0.04 0.07 0.01 0.01 0.04 0.04 -0.01 -0.01 -0.05 -0.07 -0.01 0.00 0.04 0.01 -0.04 -0.06 -0.04 0.01 0.02 -0.06 -0.06 -0.06 -0.08 -0.05 -0.05 -0.04 -0.05 -0.05 -0.02 0.01 -0.01 -0.02 0.03 0.05 -1000.00 -1000.00 -1000.00 -1000.00 -1000.00 -1000.00 -1000.00 -1000.00 -1000.00 -1000.00 -1000.00 -1000.00 -1000.00 
-1000.00 -1000.00 -1000.00 -1000.00 -1000.00 -1000.00 -1000.00 -1000.00 -1000.00 -1000.00 -1000.00 -1000.00 -1000.00 -1000.00 -1000.00 -1000.00 -1000.00 -1000.00 -1000.00 -1000.00 -1000.00 -1000.00 -1000.00 -1000.00 -1000.00 -1000.00 -1000.00 -1000.00 -1000.00 -1000.00 -1000.00 -1000.00 -1000.00 -1000.00 -1000.00 -1000.00 -1000.00 -1000.00 -1000.00 -1000.00 -1000.00 -1000.00 -1000.00 -1000.00 -1000.00 -1000.00 -1000.00 -1000.00 -1000.00 -1000.00 -1000.00 -1000.00 -1000.00 -1000.00 -1000.00 -1000.00 -1000.00 -1000.00 -1000.00 -1000.00 -1000.00 -1000.00 -1000.00 -1000.00 -1000.00 -1000.00 -1000.00 -1000.00 -1000.00 -1000.00 -1000.00 -1000.00 -1000.00 -1000.00 -1000.00 -1000.00 -1000.00 -1000.00 -1000.00 -1000.00 -1000.00 -1000.00 -1000.00 -1000.00 -1000.00 -1000.00 -1000.00 -1000.00 -1000.00 -1000.00 -1000.00 -1000.00 -1000.00 0.05 -0.00 -0.07 -0.05 -0.05 -0.05 -0.01 0.00 0.05 0.10 0.10 0.06 0.01 0.01 0.02 0.08 0.07 0.02 0.07 0.12 0.04 -0.02 0.00 0.01 0.04 0.04 0.01 -0.07 -0.07 -0.06 -0.06 -0.06 -0.06 -0.01 0.00 -0.01 -0.06 -0.09 -0.06 0.02 0.01 0.01 0.00 0.00 -0.00 -0.02 0.01 -0.00 -0.03 -0.08 -0.05 -0.00 -0.08 -0.10 -0.07 -1000.00 -1000.00 -1000.00 -1000.00 -1000.00 -1000.00 -1000.00 -1000.00 -1000.00 -1000.00 -1000.00 -1000.00 -1000.00 
-1000.00 -1000.00 -1000.00 -1000.00 -1000.00 -1000.00 -1000.00 -1000.00 -1000.00 -1000.00 -1000.00 -1000.00 -1000.00 -1000.00 -1000.00 -1000.00 -1000.00 -1000.00 -1000.00 -1000.00 -1000.00 -1000.00 -1000.00 -1000.00 -1000.00 -1000.00 -1000.00 -1000.00 -1000.00 -1000.00 -1000.00 -1000.00 -1000.00 -1000.00 -1000.00 -1000.00 -1000.00 -1000.00 -1000.00 -1000.00 -1000.00 -1000.00 -1000.00 -1000.00 -1000.00 -1000.00 -1000.00 -1000.00 -1000.00 -1000.00 -1000.00 -1000.00 -1000.00 -1000.00 -1000.00 -1000.00 -1000.00 -1000.00 -1000.00 -1000.00 -1000.00 -1000.00 -1000.00 -1000.00 -1000.00 -1000.00 -1000.00 -1000.00 -1000.00 -1000.00 -1000.00 -1000.00 -1000.00 -1000.00 -1000.00 -1000.00 -1000.00 -1000.00 -1000.00 -1000.00 -1000.00 -1000.00 -1000.00 -1000.00 -1000.00 -1000.00 -1000.00 -1000.00 -1000.00 0.00 0.00 0.05 0.15 0.15 0.04 -0.01 -0.00 0.00 0.00 0.01 0.07 0.12 0.10 0.04 0.00 0.01 0.02 0.02 0.01 0.00 -0.03 0.03 0.12 0.09 0.09 0.12 0.08 0.04 0.01 0.01 -0.01 -0.01 -0.00 -0.00 0.00 0.00 0.00 0.00 0.05 0.06 -0.04 -0.06 -0.01 0.01 0.01 0.00 0.08 0.06 0.00 0.06 0.06 0.01 -0.05 -0.08 -0.00 -0.05 -0.08 -0.01 -0.01 -0.07 -1000.00 -1000.00 -1000.00 -1000.00 -1000.00 -1000.00 -1000.00 -1000.00 -1000.00 -1000.00 -1000.00 
-1000.00 -1000.00 -1000.00 -1000.00 -1000.00 -1000.00 -1000.00 -1000.00 -1000.00 -1000.00 -1000.00 -1000.00 -1000.00 -1000.00 -1000.00 -1000.00 -1000.00 -1000.00 -1000.00 -1000.00 -1000.00 -1000.00 -1000.00 -1000.00 -1000.00 -1000.00 -1000.00 -1000.00 -1000.00 -1000.00 -1000.00 -1000.00 -1000.00 -1000.00 -1000.00 -1000.00 -1000.00 -1000.00 -1000.00 -1000.00 -1000.00 -1000.00 -1000.00 -1000.00 -1000.00 -1000.00 -1000.00 -1000.00 -1000.00 -1000.00 -1000.00 -1000.00 -1000.00 -1000.00 -1000.00 -1000.00 -1000.00 -1000.00 -1000.00 -1000.00 -1000.00 -1000.00 -1000.00 -1000.00 -1000.00 -1000.00 -1000.00 -1000.00 -1000.00 -1000.00 -1000.00 -1000.00 -1000.00 -1000.00 -1000.00 -1000.00 -1000.00 -1000.00 -1000.00 -1000.00 -1000.00 -1000.00 -1000.00 -1000.00 -1000.00 -1000.00 -1000.00 -1000.00 -1000.00 0.10 0.10 0.05 0.05 0.10 0.04 -0.01 0.00 0.00 0.00 -0.05 0.00 0.11 0.15 0.14 0.11 0.08 0.01 0.00 0.00 0.05 0.01 -0.04 0.00 -0.03 0.03 0.12 0.07 0.01 0.00 -0.02 -0.00 -0.00 0.02 0.02 0.00 0.00 -0.00 -0.02 -0.06 -0.03 -0.06 -0.05 0.00 0.00 0.00 -0.03 -0.00 -0.00 -0.08 -0.05 0.02 0.07 0.07 0.00 0.06 0.06 0.00 0.06 0.06 0.00 -1000.00 -1000.00 -1000.00 -1000.00 -1000.00 -1000.00 -1000.00 -1000.00 -1000.00 -1000.00 -1000.00 
-1000.00 -1000.00 -1000.00 -1000.00 -1000.00 -1000.00 -1000.00 -1000.00 -1000.00 -1000.00 -1000.00 -1000.00 -1000.00 -1000.00 -1000.00 -1000.00 -1000.00 -1000.00 -1000.00 -1000.00 -1000.00 -1000.00 -1000.00 -1000.00 -1000.00 -1000.00 -1000.00 -1000.00 -1000.00 -1000.00 -1000.00 -1000.00 -1000.00 -1000.00 -1000.00 -1000.00 -1000.00 -1000.00 -1000.00 -1000.00 -1000.00 -1000.00 -1000.00 -1000.00 -1000.00 -1000.00 -1000.00 -1000.00 -1000.00 -1000.00 -1000.00 -1000.00 -1000.00 -1000.00 -1000.00 -1000.00 -1000.00 -1000.00 -1000.00 -1000.00 -1000.00 -1000.00 -1000.00 -1000.00 -1000.00 -1000.00 -1000.00 -1000.00 -1000.00 -1000.00 -1000.00 -1000.00 -1000.00 -1000.00 -1000.00 -1000.00 -1000.00 -1000.00 -1000.00 -1000.00 -1000.00 -1000.00 -1000.00 -1000.00 -1000.00 -1000.00 -1000.00 -1000.00 0.10 0.10 0.15 0.15 0.05 0.00 0.00 0.00 0.00 0.00 0.05 0.00 -0.05 0.00 0.05 0.15 0.16 0.07 0.01 0.06 0.05 0.05 0.06 0.01 0.07 0.03 -0.03 0.00 0.00 0.01 0.07 0.04 -0.02 -0.08 -0.12 -0.12 -0.13 -0.11 -0.07 -0.03 -0.06 -0.02 0.00 -0.03 0.00 0.00 -0.01 -0.03 -0.05 -0.00 -0.05 -0.08 -0.03 0.00 0.02 -0.02 0.00 0.01 -0.02 -0.01 -0.01 -0.08 -1000.00 -1000.00 -1000.00 -1000.00 -1000.00 -1000.00 -1000.00 -1000.00 -1000.00 -1000.00 -1000.00 
-1000.00 -1000.00 -1000.00 -1000.00 -1000.00 -1000.00 -1000.00 -1000.00 -1000.00 -1000.00 -1000.00 -1000.00 -1000.00 -1000.00 -1000.00 -1000.00 -1000.00 -1000.00 -1000.00 -1000.00 -1000.00 -1000.00 -1000.00 -1000.00 -1000.00 -1000.00 -1000.00 -1000.00 -1000.00 -1000.00 -1000.00 -1000.00 -1000.00 -1000.00 -1000.00 -1000.00 -1000.00 -1000.00 -1000.00 -1000.00 -1000.00 -1000.00 -1000.00 -1000.00 -1000.00 -1000.00 -1000.00 -1000.00 -1000.00 -1000.00 -1000.00 -1000.00 -1000.00 -1000.00 -1000.00 -1000.00 -1000.00 -1000.00 -1000.00 -1000.00 -1000.00 -1000.00 -1000.00 -1000.00 -1000.00 -1000.00 -1000.00 -1000.00 -1000.00 -1000.00 -1000.00 -1000.00 -1000.00 -1000.00 -1000.00 -1000.00 -1000.00 -1000.00 -1000.00 -1000.00 -1000.00 -1000.00 -1000.00 -1000.00 -1000.00 -1000.00 -1000.00 -1000.00 0.00 0.00 0.05 0.15 0.15 0.05 -0.00 0.04 0.10 0.05 0.05 0.04 -0.01 0.05 0.05 0.10 0.09 0.00 -0.00 0.05 0.05 -0.00 0.00 -0.04 0.03 0.07 0.02 0.07 0.12 0.08 0.08 0.07 0.03 0.03 -0.02 -0.08 -0.13 -0.16 -0.12 -0.01 0.06 0.06 0.05 -0.05 -0.06 -0.06 -0.05 -0.00 -0.02 0.06 0.07 -0.02 -0.05 -0.05 -0.03 -0.05 -0.04 -0.03 -0.05 -0.05 -0.01 -0.06 -1000.00 -1000.00 -1000.00 -1000.00 -1000.00 -1000.00 -1000.00 -1000.00 -1000.00 -1000.00 -1000.00 
-1000.00 -1000.00 -1000.00 -1000.00 -1000.00 -1000.00 -1000.00 -1000.00 -1000.00 -1000.00 -1000.00 -1000.00 -1000.00 -1000.00 -1000.00 -1000.00 -1000.00 -1000.00 -1000.00 -1000.00 -1000.00 -1000.00 -1000.00 -1000.00 -1000.00 -1000.00 -1000.00 -1000.00 -1000.00 -1000.00 -1000.00 -1000.00 -1000.00 -1000.00 -1000.00 -1000.00 -1000.00 -1000.00 -1000.00 -1000.00 -1000.00 -1000.00 -1000.00 -1000.00 -1000.00 -1000.00 -1000.00 -1000.00 -1000.00 -1000.00 -1000.00 -1000.00 -1000.00 -1000.00 -1000.00 -1000.00 -1000.00 -1000.00 -1000.00 -1000.00 -1000.00 -1000.00 -1000.00 -1000.00 -1000.00 -1000.00 -1000.00 -1000.00 -1000.00 -1000.00 -1000.00 -1000.00 -1000.00 -1000.00 -1000.00 -1000.00 -1000.00 -1000.00 -1000.00 -1000.00 -1000.00 -1000.00 -1000.00 -1000.00 0.00 0.00 0.11 0.15 0.10 0.05 0.00 0.05 0.15 0.15 0.04 0.04 0.10 0.05 -0.00 0.00 -0.06 0.00 0.05 0.09 0.14 0.06 -0.00 -0.00 -0.00 0.05 0.11 0.02 -0.03 0.00 -0.03 0.03 0.12 0.07 0.01 0.00 -0.02 0.04 0.08 0.02 -0.07 -0.10 -0.10 -0.12 -0.11 -0.05 0.02 -0.06 -0.05 -0.01 -0.02 0.01 -0.02 -0.00 0.02 0.03 0.06 0.03 0.02 0.00 -0.01 0.02 -0.00 -0.02 0.06 0.06 0.00 -0.02 -1000.00 -1000.00 -1000.00 -1000.00 -1000.00 -1000.00 -1000.00 -1000.00 -1000.00 
-1000.00 -1000.00 -1000.00 -1000.00 -1000.00 -1000.00 -1000.00 -1000.00 -1000.00 -1000.00 -1000.00 -1000.00 -1000.00 -1000.00 -1000.00 -1000.00 -1000.00 -1000.00 -1000.00 -1000.00 -1000.00 -1000.00 -1000.00 -1000.00 -1000.00 -1000.00 -1000.00 -1000.00 -1000.00 -1000.00 -1000.00 -1000.00 -1000.00 -1000.00 -1000.00 -1000.00 -1000.00 -1000.00 -1000.00 -1000.00 -1000.00 -1000.00 -1000.00 -1000.00 -1000.00 -1000.00 -1000.00 -1000.00 -1000.00 -1000.00 -1000.00 -1000.00 -1000.00 -1000.00 -1000.00 -1000.00 -1000.00 -1000.00 -1000.00 -1000.00 -1000.00 -1000.00 -1000.00 -1000.00 -1000.00 -1000.00 -1000.00 -1000.00 -1000.00 -1000.00 -1000.00 -1000.00 -1000.00 -1000.00 -1000.00 -1000.00 -1000.00 -1000.00 -1000.00 -1000.00 -1000.00 -1000.00 -1000.00 -1000.00 0.09 0.05 0.05 0.09 0.14 0.15 0.05 0.00 0.05 0.09 0.04 -0.00 0.00 -0.00 0.05 0.09 -0.02 -0.05 0.00 0.05 0.14 0.10 0.00 0.00 0.01 0.06 0.11 0.06 0.01 0.07 0.02 -0.03 0.00 0.01 0.07 0.12 0.04 -0.02 0.00 0.01 -0.01 -0.05 -0.12 -0.15 -0.21 -0.14 0.02 -0.01 -0.05 -0.05 -0.03 -0.02 0.01 -0.00 -0.02 0.03 0.06 0.01 0.00 0.02 -0.02 -0.00 0.01 -0.02 -0.01 0.01 0.00 0.00 -1000.00 -1000.00 -1000.00 -1000.00 -1000.00 -1000.00 -1000.00 -1000.00 -1000.00 
-1000.00 -1000.00 -1000.00 -1000.00 -1000.00 -1000.00 -1000.00 -1000.00 -1000.00 -1000.00 -1000.00 -1000.00 -1000.00 -1000.00 -1000.00 -1000.00 -1000.00 -1000.00 -1000.00 -1000.00 -1000.00 -1000.00 -1000.00 -1000.00 -1000.00 -1000.00 -1000.00 -1000.00 -1000.00 -1000.00 -1000.00 -1000.00 -1000.00 -1000.00 -1000.00 -1000.00 -1000.00 -1000.00 -1000.00 -1000.00 -1000.00 -1000.00 -1000.00 -1000.00 -1000.00 -1000.00 -1000.00 -1000.00 -1000.00 -1000.00 -1000.00 -1000.00 -1000.00 -1000.00 -1000.00 -1000.00 -1000.00 -1000.00 -1000.00 -1000.00 -1000.00 -1000.00 -1000.00 -1000.00 -1000.00 -1000.00 -1000.00 -1000.00 -1000.00 -1000.00 -1000.00 -1000.00 -1000.00 -1000.00 -1000.00 -1000.00 -1000.00 -1000.00 -1000.00 -1000.00 0.05 0.00 0.05 0.09 0.14 0.15 0.05 0.00 0.05 0.16 0.11 0.00 -0.01 0.04 0.05 -0.00 0.04 0.04 0.04 0.09 0.04 0.05 0.10 0.05 0.10 0.14 0.05 0.02 0.02 0.01 0.00 0.00 0.01 0.07 0.07 0.02 0.07 0.08 0.08 0.13 0.07 0.02 0.07 0.09 0.04 -0.03 -0.13 -0.07 -0.07 -0.07 0.04 0.04 -0.03 -0.07 -0.02 -0.02 -0.01 -0.01 -0.09 -0.11 -0.06 -0.06 -0.05 -0.02 0.01 -0.01 -0.02 0.01 -0.01 -0.02 -0.02 -0.02 -1000.00 -1000.00 -1000.00 -1000.00 -1000.00 -1000.00 -1000.00 -1000.00 -1000.00 
-1000.00 -1000.00 -1000.00 -1000.00 -1000.00 -1000.00 -1000.00 -1000.00 -1000.00 -1000.00 -1000.00 -1000.00 -1000.00 -1000.00 -1000.00 -1000.00 -1000.00 -1000.00 -1000.00 -1000.00 -1000.00 -1000.00 -1000.00 -1000.00 -1000.00 -1000.00 -1000.00 -1000.00 -1000.00 -1000.00 -1000.00 -1000.00 -1000.00 -1000.00 -1000.00 -1000.00 -1000.00 -1000.00 -1000.00 -1000.00 -1000.00 -1000.00 -1000.00 -1000.00 -1000.00 -1000.00 -1000.00 -1000.00 -1000.00 -1000.00 -1000.00 -1000.00 -1000.00 -1000.00 -1000.00 -1000.00 -1000.00 -1000.00 -1000.00 -1000.00 -1000.00 -1000.00 -1000.00 -1000.00 -1000.00 -1000.00 -1000.00 -1000.00 -1000.00 -1000.00 -1000.00 -1000.00 -1000.00 -1000.00 -1000.00 -1000.00 -1000.00 0.05 0.09 0.14 0.15 0.05 0.00 0.00 0.05 0.15 0.15 0.05 0.00 0.11 0.15 0.08 0.02 0.08 0.15 0.04 0.04 0.04 -0.00 0.00 -0.06 -0.05 0.05 0.05 0.05 0.19 0.15 0.02 0.01 0.01 0.06 0.06 0.01 0.01 0.00 -0.03 0.02 0.07 0.01 0.00 0.01 0.04 0.09 0.07 0.01 0.00 -0.07 -0.09 -0.09 -0.14 -0.05 0.01 0.00 0.00 0.00 0.00 -0.01 -0.01 -0.06 -0.09 0.00 0.00 -0.02 -0.02 -0.01 0.01 -0.02 -0.01 0.01 -0.02 -0.05 -0.06 -1000.00 -1000.00 -1000.00 -1000.00 -1000.00 -1000.00 -1000.00 -1000.00 -1000.00 
-1000.00 -1000.00 -1000.00 -1000.00 -1000.00 -1000.00 -1000.00 -1000.00 -1000.00 -1000.00 -1000.00 -1000.00 -1000.00 -1000.00 -1000.00 -1000.00 -1000.00 -1000.00 -1000.00 -1000.00 -1000.00 -1000.00 -1000.00 -1000.00 -1000.00 -1000.00 -1000.00 -1000.00 -1000.00 -1000.00 -1000.00 -1000.00 -1000.00 -1000.00 -1000.00 -1000.00 -1000.00 -1000.00 -1000.00 -1000.00 -1000.00 -1000.00 -1000.00 -1000.00 -1000.00 -1000.00 -1000.00 -1000.00 -1000.00 -1000.00 -1000.00 -1000.00 -1000.00 -1000.00 -1000.00 -1000.00 -1000.00 -1000.00 -1000.00 -1000.00 -1000.00 -1000.00 -1000.00 -1000.00 -1000.00 -1000.00 -1000.00 -1000.00 -1000.00 -1000.00 -1000.00 -1000.00 -1000.00 -1000.00 -1000.00 -1000.00 -1000.00 0.05 0.00 0.05 0.15 0.14 0.08 0.09 0.05 0.05 0.16 0.11 0.00 0.05 0.08 0.07 0.02 0.03 0.09 0.04 -0.00 0.00 -0.00 0.05 0.05 -0.05 -0.05 0.00 -0.05 0.09 0.14 0.00 0.00 0.01 0.06 0.06 0.01 0.06 0.11 0.02 -0.03 0.00 0.01 0.08 0.08 0.03 0.01 0.01 0.08 0.12 0.04 -0.10 -0.11 -0.20 -0.15 0.00 0.00 -0.02 -0.09 -0.06 0.00 0.05 0.05 0.00 0.07 0.07 0.00 0.02 -0.01 -0.04 -0.06 -0.06 -0.02 0.01 -0.00 -0.02 -1000.00 -1000.00 -1000.00 -1000.00 -1000.00 -1000.00 -1000.00 -1000.00 -1000.00 
-1000.00 -1000.00 -1000.00 -1000.00 -1000.00 -1000.00 -1000.00 -1000.00 -1000.00 -1000.00 -1000.00 -1000.00 -1000.00 -1000.00 -1000.00 -1000.00 -1000.00 -1000.00 -1000.00 -1000.00 -1000.00 -1000.00 -1000.00 -1000.00 -1000.00 -1000.00 -1000.00 -1000.00 -1000.00 -1000.00 -1000.00 -1000.00 -1000.00 -1000.00 -1000.00 -1000.00 -1000.00 -1000.00 -1000.00 -1000.00 -1000.00 -1000.00 -1000.00 -1000.00 -1000.00 -1000.00 -1000.00 -1000.00 -1000.00 -1000.00 -1000.00 -1000.00 -1000.00 -1000.00 -1000.00 -1000.00 -1000.00 -1000.00 -1000.00 -1000.00 -1000.00 -1000.00 -1000.00 -1000.00 -1000.00 -1000.00 -1000.00 -1000.00 -1000.00 -1000.00 -1000.00 -1000.00 -1000.00 -0.06 0.05 0.09 0.14 0.14 0.09 0.09 0.10 0.09 0.08 0.15 0.11 0.00 0.13 0.12 0.00 0.00 0.00 0.00 0.00 -0.02 0.04 0.04 0.04 0.09 0.04 0.04 0.10 0.05 0.05 0.10 0.00 0.04 0.14 0.05 0.01 0.01 0.00 0.00 -0.04 0.02 0.11 0.07 0.01 0.01 0.03 0.09 0.07 0.01 0.01 0.04 0.09 0.12 0.07 -0.06 -0.05 -0.09 -0.17 -0.11 -0.05 0.00 -0.06 -0.09 -0.04 -0.02 0.00 -0.02 0.01 0.01 -0.08 -0.05 0.01 0.01 -0.01 -0.04 -0.09 -0.07 -0.07 -0.11 -0.06 -1000.00 -1000.00 -1000.00 -1000.00 -1000.00 -1000.00 -1000.00 -1000.00 
-1000.00 -1000.00 -1000.00 -1000.00 -1000.00 -1000.00 -1000.00 -1000.00 -1000.00 -1000.00 -1000.00 -1000.00 -1000.00 -1000.00 -1000.00 -1000.00 -1000.00 -1000.00 -1000.00 -1000.00 -1000.00 -1000.00 -1000.00 -1000.00 -1000.00 -1000.00 -1000.00 -1000.00 -1000.00 -1000.00 -1000.00 -1000.00 -1000.00 -1000.00 -1000.00 -1000.00 -1000.00 -1000.00 -1000.00 -1000.00 -1000.00 -1000.00 -1000.00 -1000.00 -1000.00 -1000.00 -1000.00 -1000.00 -1000.00 -1000.00 -1000.00 -1000.00 -1000.00 -1000.00 -1000.00 -1000.00 -1000.00 -1000.00 -1000.00 -1000.00 -1000.00 -1000.00 -1000.00 -1000.00 -1000.00 -1000.00 -1000.00 -1000.00 -1000.00 -1000.00 -1000.00 -1000.00 -1000.00 0.10 0.10 0.05 0.05 0.10 0.10 0.15 0.10 0.00 0.00 0.12 0.12 0.00 0.11 0.15 0.06 0.06 0.06 0.06 0.06 -0.01 0.09 0.09 0.04 0.09 0.04 -0.01 0.00 -0.05 0.00 0.10 0.06 0.05 0.19 0.15 0.01 0.00 0.00 0.06 0.01 -0.04 0.00 0.01 0.06 0.08 0.03 0.01 0.00 0.01 0.03 0.03 0.01 0.00 0.00 -0.07 -0.08 -0.05 -0.10 -0.16 -0.18 -0.13 -0.04 -0.02 -0.06 -0.06 -0.04 -0.06 -0.05 -0.00 -0.05 -0.08 -0.04 -0.01 0.01 0.01 -0.06 -0.08 -0.06 -0.07 -0.08 -1000.00 -1000.00 -1000.00 -1000.00 -1000.00 -1000.00 -1000.00 -1000.00 
-1000.00 -1000.00 -1000.00 -1000.00 -1000.00 -1000.00 -1000.00 -1000.00 -1000.00 -1000.00 -1000.00 -1000.00 -1000.00 -1000.00 -1000.00 -1000.00 -1000.00 -1000.00 -1000.00 -1000.00 -1000.00 -1000.00 -1000.00 -1000.00 -1000.00 -1000.00 -1000.00 -1000.00 -1000.00 -1000.00 -1000.00 -1000.00 -1000.00 -1000.00 -1000.00 -1000.00 -1000.00 -1000.00 -1000.00 -1000.00 -1000.00 -1000.00 -1000.00 -1000.00 -1000.00 -1000.00 -1000.00 -1000.00 -1000.00 -1000.00 -1000.00 -1000.00 -1000.00 -1000.00 -1000.00 -1000.00 -1000.00 -1000.00 -1000.00 -1000.00 -1000.00 -1000.00 -1000.00 -1000.00 -1000.00 -1000.00 -1000.00 -1000.00 -1000.00 -1000.00 -1000.00 -1000.00 0.10 0.10 0.15 0.10 0.00 0.00 0.00 0.11 0.11 0.00 0.00 0.11 0.16 0.05 0.05 0.09 0.06 0.06 0.06 0.06 0.06 0.01 0.04 0.04 -0.00 0.00 0.00 -0.01 0.04 0.00 -0.05 0.00 0.00 0.01 0.15 0.19 0.05 0.00 0.01 0.06 0.06 0.01 0.06 0.07 0.07 0.07 0.02 0.07 0.12 0.08 0.03 0.01 0.01 0.07 0.12 0.04 -0.08 -0.06 0.00 -0.05 -0.10 -0.17 -0.18 -0.13 -0.13 -0.07 0.00 -0.02 -0.02 0.06 0.06 -0.02 -0.06 -0.08 -0.11 -0.06 -0.01 -0.01 0.00 0.01 -0.03 -1000.00 -1000.00 -1000.00 -1000.00 -1000.00 -1000.00 -1000.00 -1000.00 