# vtk DataFile Version 3.0
GRASS 6 Export
ASCII
DATASET STRUCTURED_POINTS
DIMENSIONS 162 144 1
SPACING 200.000000 200.000000 0.000000
ORIGIN 587861.400000 1677789.600000 -1000.000000
CELL_DATA 23023
SCALARS dir_slope_simple@PERMANENT float 1
LOOKUP_TABLE default
-1000.00 -1000.00 -1000.00 -1000.00 -1000.00 -1000.00 -1000.00 -1000.00 -1000.00 -1000.00 -1000.00 -1000.00 -1000.00 -1000.00 -1000.00 -1000.00 -1000.00 -1000.00 -1000.00 -1000.00 -1000.00 -1000.00 -1000.00 -1000.00 -1000.00 -1000.00 -1000.00 -1000.00 -1000.00 -1000.00 -1000.00 -1000.00 -1000.00 -1000.00 -1000.00 -1000.00 -1000.00 -1000.00 -1000.00 -1000.00 -1000.00 -1000.00 -1000.00 -1000.00 -1000.00 -1000.00 -1000.00 -1000.00 -1000.00 -1000.00 -1000.00 -1000.00 -1000.00 -1000.00 -1000.00 -1000.00 -1000.00 -1000.00 -1000.00 -1000.00 -1000.00 -1000.00 -1000.00 -1000.00 -1000.00 -1000.00 -1000.00 -1000.00 -1000.00 -1000.00 -1000.00 -1000.00 -1000.00 -1000.00 -1000.00 -1000.00 -1000.00 -1000.00 -1000.00 -1000.00 -1000.00 -1000.00 -1000.00 -1000.00 -1000.00 -1000.00 -1000.00 -1000.00 -1000.00 -1000.00 -1000.00 -1000.00 -1000.00 -1000.00 -1000.00 -1000.00 -1000.00 -1000.00 -1000.00 -1000.00 -1000.00 -1000.00 -1000.00 -1000.00 -1000.00 -0.24 -0.24 0.00 0.00 -0.24 -0.25 0.00 -0.25 -0.26 -0.19 0.06 0.00 0.00 -0.26 -0.21 0.00 -0.32 0.00 -0.05 -0.06 -0.06 -0.05 0.00 0.20 -0.06 0.20 -0.12 -0.32 -0.06 -0.32 0.00 -0.06 -1000.00 -1000.00 -1000.00 -1000.00 -1000.00 -1000.00 -1000.00 -1000.00 -1000.00 -1000.00 -1000.00 -1000.00 -1000.00 -1000.00 -1000.00 -1000.00 -1000.00 -1000.00 -1000.00 -1000.00 -1000.00 -1000.00 -1000.00 -1000.00 
-1000.00 -1000.00 -1000.00 -1000.00 -1000.00 -1000.00 -1000.00 -1000.00 -1000.00 -1000.00 -1000.00 -1000.00 -1000.00 -1000.00 -1000.00 -1000.00 -1000.00 -1000.00 -1000.00 -1000.00 -1000.00 -1000.00 -1000.00 -1000.00 -1000.00 -1000.00 -1000.00 -1000.00 -1000.00 -1000.00 -1000.00 -1000.00 -1000.00 -1000.00 -1000.00 -1000.00 -1000.00 -1000.00 -1000.00 -1000.00 -1000.00 -1000.00 -1000.00 -1000.00 -1000.00 -1000.00 -1000.00 -1000.00 -1000.00 -1000.00 -1000.00 -1000.00 -1000.00 -1000.00 -1000.00 -1000.00 -1000.00 -1000.00 -1000.00 -1000.00 -1000.00 -1000.00 -1000.00 -1000.00 -1000.00 -1000.00 -1000.00 -1000.00 -1000.00 -1000.00 -1000.00 -1000.00 -1000.00 -1000.00 -1000.00 -1000.00 -1000.00 -1000.00 -1000.00 -1000.00 -1000.00 -1000.00 -1000.00 -1000.00 -1000.00 -1000.00 -1000.00 -1000.00 -1000.00 -1000.00 -1000.00 -1000.00 -1000.00 -1000.00 -1000.00 -1000.00 -1000.00 -1000.00 -1000.00 -1000.00 -1000.00 -1000.00 -1000.00 -1000.00 -0.24 -0.12 -0.32 -0.20 -0.04 -0.04 -0.20 -0.12 -0.06 -0.13 -0.13 -0.13 -0.13 -0.07 -0.07 -0.13 0.00 -0.06 -0.06 -0.06 -0.06 -0.06 -0.06 -0.06 0.07 -0.06 0.07 0.00 -0.06 -0.06 -0.06 -0.06 0.07 -0.06 -1000.00 -1000.00 -1000.00 -1000.00 -1000.00 -1000.00 -1000.00 -1000.00 -1000.00 -1000.00 -1000.00 -1000.00 -1000.00 -1000.00 -1000.00 -1000.00 -1000.00 -1000.00 -1000.00 -1000.00 -1000.00 -1000.00 -1000.00 
-1000.00 -1000.00 -1000.00 -1000.00 -1000.00 -1000.00 -1000.00 -1000.00 -1000.00 -1000.00 -1000.00 -1000.00 -1000.00 -1000.00 -1000.00 -1000.00 -1000.00 -1000.00 -1000.00 -1000.00 -1000.00 -1000.00 -1000.00 -1000.00 -1000.00 -1000.00 -1000.00 -1000.00 -1000.00 -1000.00 -1000.00 -1000.00 -1000.00 -1000.00 -1000.00 -1000.00 -1000.00 -1000.00 -1000.00 -1000.00 -1000.00 -1000.00 -1000.00 -1000.00 -1000.00 -1000.00 -1000.00 -1000.00 -1000.00 -1000.00 -1000.00 -1000.00 -1000.00 -1000.00 -1000.00 -1000.00 -1000.00 -1000.00 -1000.00 -1000.00 -1000.00 -1000.00 -1000.00 -1000.00 -1000.00 -1000.00 -1000.00 -1000.00 -1000.00 -1000.00 -1000.00 -1000.00 -1000.00 -1000.00 -1000.00 -1000.00 -1000.00 -1000.00 -1000.00 -1000.00 -1000.00 -1000.00 -1000.00 -1000.00 -1000.00 -1000.00 -1000.00 -1000.00 -1000.00 -1000.00 -1000.00 -1000.00 -1000.00 -1000.00 -1000.00 -1000.00 -1000.00 -1000.00 -1000.00 -1000.00 -1000.00 -1000.00 -0.12 -0.03 -0.12 -0.12 -0.12 -0.32 -0.24 0.00 -0.12 -0.24 -0.13 -0.13 -0.06 -0.07 -0.13 -0.13 0.00 0.00 -0.06 0.08 0.00 -0.06 -0.06 -0.06 -0.06 0.07 -0.06 0.07 -0.06 -0.06 0.07 0.08 0.08 -0.06 0.07 -0.06 0.07 0.00 0.00 -1000.00 -1000.00 -1000.00 -1000.00 -1000.00 -1000.00 -1000.00 -1000.00 -1000.00 -1000.00 -1000.00 -1000.00 -1000.00 -1000.00 -1000.00 -1000.00 -1000.00 -1000.00 -1000.00 -1000.00 
-1000.00 -1000.00 -1000.00 -1000.00 -1000.00 -1000.00 -1000.00 -1000.00 -1000.00 -1000.00 -1000.00 -1000.00 -1000.00 -1000.00 -1000.00 -1000.00 -1000.00 -1000.00 -1000.00 -1000.00 -1000.00 -1000.00 -1000.00 -1000.00 -1000.00 -1000.00 -1000.00 -1000.00 -1000.00 -1000.00 -1000.00 -1000.00 -1000.00 -1000.00 -1000.00 -1000.00 -1000.00 -1000.00 -1000.00 -1000.00 -1000.00 -1000.00 -1000.00 -1000.00 -1000.00 -1000.00 -1000.00 -1000.00 -1000.00 -1000.00 -1000.00 -1000.00 -1000.00 -1000.00 -1000.00 -1000.00 -1000.00 -1000.00 -1000.00 -1000.00 -1000.00 -1000.00 -1000.00 -1000.00 -1000.00 -1000.00 -1000.00 -1000.00 -1000.00 -1000.00 -1000.00 -1000.00 -1000.00 -1000.00 -1000.00 -1000.00 -1000.00 -1000.00 -1000.00 -1000.00 -1000.00 -1000.00 -1000.00 -1000.00 -1000.00 -1000.00 -1000.00 -1000.00 -1000.00 -1000.00 -1000.00 -1000.00 -1000.00 -1000.00 -1000.00 -1000.00 -1000.00 -1000.00 -1000.00 -1000.00 -1000.00 -0.03 -0.12 -0.12 -0.12 -0.24 -0.12 -0.24 -0.32 -0.24 -0.16 -0.12 -0.12 -0.12 -0.12 -0.13 0.00 0.00 0.00 0.00 -0.06 -0.06 0.00 0.07 -0.06 0.07 -0.11 0.07 -0.06 0.07 0.00 -0.06 -0.12 -0.06 0.00 0.08 -0.06 -0.06 -0.06 0.00 0.06 -0.07 -1000.00 -1000.00 -1000.00 -1000.00 -1000.00 -1000.00 -1000.00 -1000.00 -1000.00 -1000.00 -1000.00 -1000.00 -1000.00 -1000.00 -1000.00 -1000.00 -1000.00 -1000.00 -1000.00 
-1000.00 -1000.00 -1000.00 -1000.00 -1000.00 -1000.00 -1000.00 -1000.00 -1000.00 -1000.00 -1000.00 -1000.00 -1000.00 -1000.00 -1000.00 -1000.00 -1000.00 -1000.00 -1000.00 -1000.00 -1000.00 -1000.00 -1000.00 -1000.00 -1000.00 -1000.00 -1000.00 -1000.00 -1000.00 -1000.00 -1000.00 -1000.00 -1000.00 -1000.00 -1000.00 -1000.00 -1000.00 -1000.00 -1000.00 -1000.00 -1000.00 -1000.00 -1000.00 -1000.00 -1000.00 -1000.00 -1000.00 -1000.00 -1000.00 -1000.00 -1000.00 -1000.00 -1000.00 -1000.00 -1000.00 -1000.00 -1000.00 -1000.00 -1000.00 -1000.00 -1000.00 -1000.00 -1000.00 -1000.00 -1000.00 -1000.00 -1000.00 -1000.00 -1000.00 -1000.00 -1000.00 -1000.00 -1000.00 -1000.00 -1000.00 -1000.00 -1000.00 -1000.00 -1000.00 -1000.00 -1000.00 -1000.00 -1000.00 -1000.00 -1000.00 -1000.00 -1000.00 -1000.00 -1000.00 -1000.00 -1000.00 -1000.00 -1000.00 -1000.00 -1000.00 -1000.00 -1000.00 -1000.00 -1000.00 -1000.00 -0.05 -0.12 -0.12 -0.04 -0.04 -0.12 -0.12 -0.12 -0.12 -0.24 -0.32 -0.32 -0.25 -0.25 -0.05 -0.13 -0.07 0.00 0.00 0.00 -0.06 -0.06 0.07 0.07 0.07 0.07 -0.06 -0.06 -0.06 -0.06 0.00 0.07 -0.06 -0.06 -0.11 0.08 0.00 0.08 -0.06 0.00 0.06 0.06 0.00 -1000.00 -1000.00 -1000.00 -1000.00 -1000.00 -1000.00 -1000.00 -1000.00 -1000.00 -1000.00 -1000.00 -1000.00 -1000.00 -1000.00 -1000.00 -1000.00 -1000.00 -1000.00 
-1000.00 -1000.00 -1000.00 -1000.00 -1000.00 -1000.00 -1000.00 -1000.00 -1000.00 -1000.00 -1000.00 -1000.00 -1000.00 -1000.00 -1000.00 -1000.00 -1000.00 -1000.00 -1000.00 -1000.00 -1000.00 -1000.00 -1000.00 -1000.00 -1000.00 -1000.00 -1000.00 -1000.00 -1000.00 -1000.00 -1000.00 -1000.00 -1000.00 -1000.00 -1000.00 -1000.00 -1000.00 -1000.00 -1000.00 -1000.00 -1000.00 -1000.00 -1000.00 -1000.00 -1000.00 -1000.00 -1000.00 -1000.00 -1000.00 -1000.00 -1000.00 -1000.00 -1000.00 -1000.00 -1000.00 -1000.00 -1000.00 -1000.00 -1000.00 -1000.00 -1000.00 -1000.00 -1000.00 -1000.00 -1000.00 -1000.00 -1000.00 -1000.00 -1000.00 -1000.00 -1000.00 -1000.00 -1000.00 -1000.00 -1000.00 -1000.00 -1000.00 -1000.00 -1000.00 -1000.00 -1000.00 -1000.00 -1000.00 -1000.00 -1000.00 -1000.00 -1000.00 -1000.00 -1000.00 -1000.00 -1000.00 -1000.00 -1000.00 -1000.00 -1000.00 -1000.00 -1000.00 -1000.00 -1000.00 -0.02 0.07 -0.03 -0.11 -0.12 0.00 -0.12 -0.12 -0.12 -0.12 -0.04 -0.04 -0.24 -0.23 -0.20 -0.20 0.06 -0.07 0.00 0.00 0.13 0.07 -0.12 0.07 -0.06 0.07 0.00 -0.06 -0.06 0.07 -0.06 0.07 0.07 -0.06 0.08 -0.06 -0.19 -0.06 0.08 0.00 0.00 -0.07 0.06 0.00 -0.07 -1000.00 -1000.00 -1000.00 -1000.00 -1000.00 -1000.00 -1000.00 -1000.00 -1000.00 -1000.00 -1000.00 -1000.00 -1000.00 -1000.00 -1000.00 -1000.00 -1000.00 
-1000.00 -1000.00 -1000.00 -1000.00 -1000.00 -1000.00 -1000.00 -1000.00 -1000.00 -1000.00 -1000.00 -1000.00 -1000.00 -1000.00 -1000.00 -1000.00 -1000.00 -1000.00 -1000.00 -1000.00 -1000.00 -1000.00 -1000.00 -1000.00 -1000.00 -1000.00 -1000.00 -1000.00 -1000.00 -1000.00 -1000.00 -1000.00 -1000.00 -1000.00 -1000.00 -1000.00 -1000.00 -1000.00 -1000.00 -1000.00 -1000.00 -1000.00 -1000.00 -1000.00 -1000.00 -1000.00 -1000.00 -1000.00 -1000.00 -1000.00 -1000.00 -1000.00 -1000.00 -1000.00 -1000.00 -1000.00 -1000.00 -1000.00 -1000.00 -1000.00 -1000.00 -1000.00 -1000.00 -1000.00 -1000.00 -1000.00 -1000.00 -1000.00 -1000.00 -1000.00 -1000.00 -1000.00 -1000.00 -1000.00 -1000.00 -1000.00 -1000.00 -1000.00 -1000.00 -1000.00 -1000.00 -1000.00 -1000.00 -1000.00 -1000.00 -1000.00 -1000.00 -1000.00 -1000.00 -1000.00 -1000.00 -1000.00 -1000.00 -1000.00 -1000.00 -1000.00 -1000.00 -1000.00 -0.11 -0.11 -0.03 -0.03 -0.11 -0.12 -0.04 -0.04 -0.12 -0.12 -0.12 -0.12 0.00 0.00 -0.08 0.05 -0.07 -0.07 -0.13 0.00 0.06 0.06 0.13 -0.06 -0.06 -0.06 -0.06 0.00 0.07 -0.12 0.07 -0.06 0.07 0.00 -0.06 -0.06 0.00 -0.06 0.02 -0.06 0.00 -0.07 -0.07 0.00 -0.07 -0.07 -1000.00 -1000.00 -1000.00 -1000.00 -1000.00 -1000.00 -1000.00 -1000.00 -1000.00 -1000.00 -1000.00 -1000.00 -1000.00 -1000.00 -1000.00 -1000.00 -1000.00 
-1000.00 -1000.00 -1000.00 -1000.00 -1000.00 -1000.00 -1000.00 -1000.00 -1000.00 -1000.00 -1000.00 -1000.00 -1000.00 -1000.00 -1000.00 -1000.00 -1000.00 -1000.00 -1000.00 -1000.00 -1000.00 -1000.00 -1000.00 -1000.00 -1000.00 -1000.00 -1000.00 -1000.00 -1000.00 -1000.00 -1000.00 -1000.00 -1000.00 -1000.00 -1000.00 -1000.00 -1000.00 -1000.00 -1000.00 -1000.00 -1000.00 -1000.00 -1000.00 -1000.00 -1000.00 -1000.00 -1000.00 -1000.00 -1000.00 -1000.00 -1000.00 -1000.00 -1000.00 -1000.00 -1000.00 -1000.00 -1000.00 -1000.00 -1000.00 -1000.00 -1000.00 -1000.00 -1000.00 -1000.00 -1000.00 -1000.00 -1000.00 -1000.00 -1000.00 -1000.00 -1000.00 -1000.00 -1000.00 -1000.00 -1000.00 -1000.00 -1000.00 -1000.00 -1000.00 -1000.00 -1000.00 -1000.00 -1000.00 -1000.00 -1000.00 -1000.00 -1000.00 -1000.00 -1000.00 -1000.00 -1000.00 -1000.00 -1000.00 -1000.00 -1000.00 -1000.00 -1000.00 -0.11 -0.01 -0.01 -0.02 0.08 -0.21 -0.11 -0.12 -0.12 0.00 0.00 0.00 0.00 0.00 0.12 0.04 -0.07 0.00 -0.13 -0.07 -0.14 -0.07 -0.13 0.00 -0.07 -0.06 0.06 -0.06 -0.06 0.07 -0.06 -0.06 -0.06 -0.06 0.00 0.08 -0.06 0.07 0.01 0.08 0.00 0.06 -0.07 0.00 0.06 -0.07 0.00 0.06 -1000.00 -1000.00 -1000.00 -1000.00 -1000.00 -1000.00 -1000.00 -1000.00 -1000.00 -1000.00 -1000.00 -1000.00 -1000.00 -1000.00 -1000.00 -1000.00 
-1000.00 -1000.00 -1000.00 -1000.00 -1000.00 -1000.00 -1000.00 -1000.00 -1000.00 -1000.00 -1000.00 -1000.00 -1000.00 -1000.00 -1000.00 -1000.00 -1000.00 -1000.00 -1000.00 -1000.00 -1000.00 -1000.00 -1000.00 -1000.00 -1000.00 -1000.00 -1000.00 -1000.00 -1000.00 -1000.00 -1000.00 -1000.00 -1000.00 -1000.00 -1000.00 -1000.00 -1000.00 -1000.00 -1000.00 -1000.00 -1000.00 -1000.00 -1000.00 -1000.00 -1000.00 -1000.00 -1000.00 -1000.00 -1000.00 -1000.00 -1000.00 -1000.00 -1000.00 -1000.00 -1000.00 -1000.00 -1000.00 -1000.00 -1000.00 -1000.00 -1000.00 -1000.00 -1000.00 -1000.00 -1000.00 -1000.00 -1000.00 -1000.00 -1000.00 -1000.00 -1000.00 -1000.00 -1000.00 -1000.00 -1000.00 -1000.00 -1000.00 -1000.00 -1000.00 -1000.00 -1000.00 -1000.00 -1000.00 -1000.00 -1000.00 -1000.00 -1000.00 -1000.00 -1000.00 -1000.00 -1000.00 -1000.00 -1000.00 -1000.00 -1000.00 -1000.00 -0.29 -0.20 -0.10 -0.11 -0.11 0.15 -0.04 -0.20 -0.02 0.00 -0.09 0.00 0.00 0.00 0.04 0.04 0.12 0.00 0.12 0.04 0.04 0.00 -0.12 -0.07 -0.07 0.05 -0.14 0.06 0.00 0.07 -0.06 -0.06 -0.06 0.08 -0.06 0.08 0.08 -0.06 0.07 -0.06 -0.06 0.00 -0.07 0.06 0.00 -0.07 0.06 0.00 -0.07 0.06 0.06 0.05 -1000.00 -1000.00 -1000.00 -1000.00 -1000.00 -1000.00 -1000.00 -1000.00 -1000.00 -1000.00 -1000.00 -1000.00 -1000.00 
-1000.00 -1000.00 -1000.00 -1000.00 -1000.00 -1000.00 -1000.00 -1000.00 -1000.00 -1000.00 -1000.00 -1000.00 -1000.00 -1000.00 -1000.00 -1000.00 -1000.00 -1000.00 -1000.00 -1000.00 -1000.00 -1000.00 -1000.00 -1000.00 -1000.00 -1000.00 -1000.00 -1000.00 -1000.00 -1000.00 -1000.00 -1000.00 -1000.00 -1000.00 -1000.00 -1000.00 -1000.00 -1000.00 -1000.00 -1000.00 -1000.00 -1000.00 -1000.00 -1000.00 -1000.00 -1000.00 -1000.00 -1000.00 -1000.00 -1000.00 -1000.00 -1000.00 -1000.00 -1000.00 -1000.00 -1000.00 -1000.00 -1000.00 -1000.00 -1000.00 -1000.00 -1000.00 -1000.00 -1000.00 -1000.00 -1000.00 -1000.00 -1000.00 -1000.00 -1000.00 -1000.00 -1000.00 -1000.00 -1000.00 -1000.00 -1000.00 -1000.00 -1000.00 -1000.00 -1000.00 -1000.00 -1000.00 -1000.00 -1000.00 -1000.00 -1000.00 -1000.00 -1000.00 -1000.00 -1000.00 -1000.00 -1000.00 -1000.00 0.00 0.00 -0.20 -0.20 -0.20 -0.10 -0.02 -0.11 -0.04 0.18 0.00 -0.09 0.02 0.00 0.00 0.12 0.04 0.04 0.00 0.00 -0.07 0.05 0.12 0.00 0.00 0.05 0.06 -0.07 0.05 -0.07 -0.07 -0.06 0.07 0.00 0.07 -0.12 -0.06 -0.06 0.08 0.00 -0.06 -0.06 -0.06 -0.06 -0.07 -0.07 0.00 -0.07 -0.07 0.00 0.06 -0.07 0.00 0.00 0.05 -1000.00 -1000.00 -1000.00 -1000.00 -1000.00 -1000.00 -1000.00 -1000.00 -1000.00 -1000.00 -1000.00 -1000.00 -1000.00 
-1000.00 -1000.00 -1000.00 -1000.00 -1000.00 -1000.00 -1000.00 -1000.00 -1000.00 -1000.00 -1000.00 -1000.00 -1000.00 -1000.00 -1000.00 -1000.00 -1000.00 -1000.00 -1000.00 -1000.00 -1000.00 -1000.00 -1000.00 -1000.00 -1000.00 -1000.00 -1000.00 -1000.00 -1000.00 -1000.00 -1000.00 -1000.00 -1000.00 -1000.00 -1000.00 -1000.00 -1000.00 -1000.00 -1000.00 -1000.00 -1000.00 -1000.00 -1000.00 -1000.00 -1000.00 -1000.00 -1000.00 -1000.00 -1000.00 -1000.00 -1000.00 -1000.00 -1000.00 -1000.00 -1000.00 -1000.00 -1000.00 -1000.00 -1000.00 -1000.00 -1000.00 -1000.00 -1000.00 -1000.00 -1000.00 -1000.00 -1000.00 -1000.00 -1000.00 -1000.00 -1000.00 -1000.00 -1000.00 -1000.00 -1000.00 -1000.00 -1000.00 -1000.00 -1000.00 -1000.00 -1000.00 -1000.00 -1000.00 -1000.00 -1000.00 -1000.00 -1000.00 -1000.00 -1000.00 -1000.00 -1000.00 -1000.00 0.20 0.00 0.00 -0.02 -0.10 0.00 -0.10 0.00 0.00 0.00 0.10 0.10 0.11 0.00 0.00 0.03 0.04 0.12 0.00 0.12 0.12 0.05 -0.07 0.00 0.00 0.05 0.05 0.00 -0.07 -0.07 -0.06 -0.06 -0.06 -0.06 -0.06 0.07 0.00 -0.06 -0.12 -0.06 0.00 0.07 -0.06 0.07 0.00 -0.07 0.00 0.06 -0.07 0.00 -0.13 -0.07 0.06 -0.13 -0.07 -0.07 -0.07 -1000.00 -1000.00 -1000.00 -1000.00 -1000.00 -1000.00 -1000.00 -1000.00 -1000.00 -1000.00 -1000.00 -1000.00 
-1000.00 -1000.00 -1000.00 -1000.00 -1000.00 -1000.00 -1000.00 -1000.00 -1000.00 -1000.00 -1000.00 -1000.00 -1000.00 -1000.00 -1000.00 -1000.00 -1000.00 -1000.00 -1000.00 -1000.00 -1000.00 -1000.00 -1000.00 -1000.00 -1000.00 -1000.00 -1000.00 -1000.00 -1000.00 -1000.00 -1000.00 -1000.00 -1000.00 -1000.00 -1000.00 -1000.00 -1000.00 -1000.00 -1000.00 -1000.00 -1000.00 -1000.00 -1000.00 -1000.00 -1000.00 -1000.00 -1000.00 -1000.00 -1000.00 -1000.00 -1000.00 -1000.00 -1000.00 -1000.00 -1000.00 -1000.00 -1000.00 -1000.00 -1000.00 -1000.00 -1000.00 -1000.00 -1000.00 -1000.00 -1000.00 -1000.00 -1000.00 -1000.00 -1000.00 -1000.00 -1000.00 -1000.00 -1000.00 -1000.00 -1000.00 -1000.00 -1000.00 -1000.00 -1000.00 -1000.00 -1000.00 -1000.00 -1000.00 -1000.00 -1000.00 -1000.00 -1000.00 -1000.00 -1000.00 0.00 0.00 0.00 0.20 0.20 -0.02 -0.02 0.00 0.00 0.00 0.00 0.12 0.12 0.11 -0.01 0.00 0.00 0.03 0.03 0.00 0.00 -0.08 0.04 0.12 0.12 0.12 0.12 0.04 0.05 0.00 0.00 0.06 -0.07 0.06 -0.06 0.07 -0.06 0.07 -0.06 0.07 0.07 -0.06 -0.06 -0.06 0.07 -0.06 0.07 0.06 0.06 0.00 0.06 0.06 0.06 -0.07 -0.13 0.06 -0.07 -0.13 0.06 -0.07 0.00 -1000.00 -1000.00 -1000.00 -1000.00 -1000.00 -1000.00 -1000.00 -1000.00 -1000.00 -1000.00 -1000.00 
-1000.00 -1000.00 -1000.00 -1000.00 -1000.00 -1000.00 -1000.00 -1000.00 -1000.00 -1000.00 -1000.00 -1000.00 -1000.00 -1000.00 -1000.00 -1000.00 -1000.00 -1000.00 -1000.00 -1000.00 -1000.00 -1000.00 -1000.00 -1000.00 -1000.00 -1000.00 -1000.00 -1000.00 -1000.00 -1000.00 -1000.00 -1000.00 -1000.00 -1000.00 -1000.00 -1000.00 -1000.00 -1000.00 -1000.00 -1000.00 -1000.00 -1000.00 -1000.00 -1000.00 -1000.00 -1000.00 -1000.00 -1000.00 -1000.00 -1000.00 -1000.00 -1000.00 -1000.00 -1000.00 -1000.00 -1000.00 -1000.00 -1000.00 -1000.00 -1000.00 -1000.00 -1000.00 -1000.00 -1000.00 -1000.00 -1000.00 -1000.00 -1000.00 -1000.00 -1000.00 -1000.00 -1000.00 -1000.00 -1000.00 -1000.00 -1000.00 -1000.00 -1000.00 -1000.00 -1000.00 -1000.00 -1000.00 -1000.00 -1000.00 -1000.00 -1000.00 -1000.00 -1000.00 0.20 0.10 0.10 0.00 0.00 0.09 0.09 0.00 0.00 0.00 0.00 -0.10 0.00 0.11 0.19 0.18 0.12 0.04 0.02 0.00 0.00 0.10 0.01 -0.10 0.00 -0.08 0.05 0.12 0.12 0.00 0.00 -0.07 0.06 -0.07 0.09 -0.05 0.07 -0.06 0.06 -0.07 -0.06 0.00 -0.06 -0.06 0.07 -0.06 0.07 -0.06 -0.07 0.06 -0.13 -0.06 0.07 0.07 0.07 0.00 0.06 0.06 0.00 0.06 0.06 0.00 -1000.00 -1000.00 -1000.00 -1000.00 -1000.00 -1000.00 -1000.00 -1000.00 -1000.00 -1000.00 -1000.00 
-1000.00 -1000.00 -1000.00 -1000.00 -1000.00 -1000.00 -1000.00 -1000.00 -1000.00 -1000.00 -1000.00 -1000.00 -1000.00 -1000.00 -1000.00 -1000.00 -1000.00 -1000.00 -1000.00 -1000.00 -1000.00 -1000.00 -1000.00 -1000.00 -1000.00 -1000.00 -1000.00 -1000.00 -1000.00 -1000.00 -1000.00 -1000.00 -1000.00 -1000.00 -1000.00 -1000.00 -1000.00 -1000.00 -1000.00 -1000.00 -1000.00 -1000.00 -1000.00 -1000.00 -1000.00 -1000.00 -1000.00 -1000.00 -1000.00 -1000.00 -1000.00 -1000.00 -1000.00 -1000.00 -1000.00 -1000.00 -1000.00 -1000.00 -1000.00 -1000.00 -1000.00 -1000.00 -1000.00 -1000.00 -1000.00 -1000.00 -1000.00 -1000.00 -1000.00 -1000.00 -1000.00 -1000.00 -1000.00 -1000.00 -1000.00 -1000.00 -1000.00 -1000.00 -1000.00 -1000.00 -1000.00 -1000.00 -1000.00 -1000.00 -1000.00 -1000.00 -1000.00 -1000.00 0.10 0.10 0.20 0.20 0.00 0.00 0.00 0.00 0.00 0.00 0.10 0.00 -0.10 0.00 0.00 0.21 0.11 0.12 0.00 0.11 0.00 0.00 0.11 0.00 0.12 0.05 -0.08 0.00 0.00 0.00 0.12 0.05 -0.07 -0.07 -0.18 -0.05 -0.19 -0.06 -0.07 0.00 -0.06 -0.06 0.06 -0.12 0.07 -0.06 0.07 -0.07 -0.07 0.06 -0.06 -0.13 0.00 -0.06 0.07 0.00 -0.06 0.06 0.00 -0.07 0.06 -0.13 -1000.00 -1000.00 -1000.00 -1000.00 -1000.00 -1000.00 -1000.00 -1000.00 -1000.00 -1000.00 -1000.00 
-1000.00 -1000.00 -1000.00 -1000.00 -1000.00 -1000.00 -1000.00 -1000.00 -1000.00 -1000.00 -1000.00 -1000.00 -1000.00 -1000.00 -1000.00 -1000.00 -1000.00 -1000.00 -1000.00 -1000.00 -1000.00 -1000.00 -1000.00 -1000.00 -1000.00 -1000.00 -1000.00 -1000.00 -1000.00 -1000.00 -1000.00 -1000.00 -1000.00 -1000.00 -1000.00 -1000.00 -1000.00 -1000.00 -1000.00 -1000.00 -1000.00 -1000.00 -1000.00 -1000.00 -1000.00 -1000.00 -1000.00 -1000.00 -1000.00 -1000.00 -1000.00 -1000.00 -1000.00 -1000.00 -1000.00 -1000.00 -1000.00 -1000.00 -1000.00 -1000.00 -1000.00 -1000.00 -1000.00 -1000.00 -1000.00 -1000.00 -1000.00 -1000.00 -1000.00 -1000.00 -1000.00 -1000.00 -1000.00 -1000.00 -1000.00 -1000.00 -1000.00 -1000.00 -1000.00 -1000.00 -1000.00 -1000.00 -1000.00 -1000.00 -1000.00 -1000.00 -1000.00 0.11 0.00 0.00 0.00 0.20 0.20 0.00 0.00 0.09 0.10 -0.00 -0.00 0.09 0.00 0.10 0.00 0.10 0.08 0.00 -0.00 -0.00 0.10 0.00 0.00 -0.09 0.04 0.12 0.00 0.12 0.12 0.04 0.04 0.12 0.00 0.12 -0.07 -0.07 -0.19 -0.13 -0.19 0.06 0.06 0.06 0.06 -0.06 -0.06 -0.06 0.00 -0.07 0.00 0.06 0.07 0.00 -0.07 -0.07 0.00 -0.06 -0.06 0.00 -0.07 -0.07 0.06 -0.08 -0.13 -1000.00 -1000.00 -1000.00 -1000.00 -1000.00 -1000.00 -1000.00 -1000.00 -1000.00 -1000.00 
-1000.00 -1000.00 -1000.00 -1000.00 -1000.00 -1000.00 -1000.00 -1000.00 -1000.00 -1000.00 -1000.00 -1000.00 -1000.00 -1000.00 -1000.00 -1000.00 -1000.00 -1000.00 -1000.00 -1000.00 -1000.00 -1000.00 -1000.00 -1000.00 -1000.00 -1000.00 -1000.00 -1000.00 -1000.00 -1000.00 -1000.00 -1000.00 -1000.00 -1000.00 -1000.00 -1000.00 -1000.00 -1000.00 -1000.00 -1000.00 -1000.00 -1000.00 -1000.00 -1000.00 -1000.00 -1000.00 -1000.00 -1000.00 -1000.00 -1000.00 -1000.00 -1000.00 -1000.00 -1000.00 -1000.00 -1000.00 -1000.00 -1000.00 -1000.00 -1000.00 -1000.00 -1000.00 -1000.00 -1000.00 -1000.00 -1000.00 -1000.00 -1000.00 -1000.00 -1000.00 -1000.00 -1000.00 -1000.00 -1000.00 -1000.00 -1000.00 -1000.00 -1000.00 -1000.00 -1000.00 -1000.00 -1000.00 -1000.00 -1000.00 0.00 0.00 0.11 0.20 0.09 0.00 0.00 0.00 0.20 0.20 -0.02 -0.02 0.10 0.10 0.00 0.00 -0.11 0.00 0.10 0.09 0.18 0.02 -0.00 0.00 0.00 0.10 0.11 0.02 -0.08 0.00 -0.08 0.04 0.12 0.12 0.00 0.00 -0.07 0.05 0.13 0.00 -0.07 -0.07 -0.14 -0.14 -0.19 0.06 0.00 -0.06 -0.06 0.07 -0.13 0.06 0.00 -0.07 0.07 0.07 0.06 0.00 0.07 -0.06 0.00 0.06 -0.07 0.00 0.06 0.06 0.00 0.00 -1000.00 -1000.00 -1000.00 -1000.00 -1000.00 -1000.00 -1000.00 -1000.00 -1000.00 
-1000.00 -1000.00 -1000.00 -1000.00 -1000.00 -1000.00 -1000.00 -1000.00 -1000.00 -1000.00 -1000.00 -1000.00 -1000.00 -1000.00 -1000.00 -1000.00 -1000.00 -1000.00 -1000.00 -1000.00 -1000.00 -1000.00 -1000.00 -1000.00 -1000.00 -1000.00 -1000.00 -1000.00 -1000.00 -1000.00 -1000.00 -1000.00 -1000.00 -1000.00 -1000.00 -1000.00 -1000.00 -1000.00 -1000.00 -1000.00 -1000.00 -1000.00 -1000.00 -1000.00 -1000.00 -1000.00 -1000.00 -1000.00 -1000.00 -1000.00 -1000.00 -1000.00 -1000.00 -1000.00 -1000.00 -1000.00 -1000.00 -1000.00 -1000.00 -1000.00 -1000.00 -1000.00 -1000.00 -1000.00 -1000.00 -1000.00 -1000.00 -1000.00 -1000.00 -1000.00 -1000.00 -1000.00 -1000.00 -1000.00 -1000.00 -1000.00 -1000.00 -1000.00 -1000.00 -1000.00 -1000.00 -1000.00 -1000.00 0.20 0.09 0.00 0.00 0.09 0.20 0.20 0.00 0.00 0.00 0.09 0.09 0.00 0.00 0.00 0.10 0.09 -0.02 -0.10 0.00 0.00 0.19 0.10 0.00 0.00 0.02 0.02 0.11 0.11 0.00 0.12 0.03 -0.08 0.00 0.00 0.12 0.12 0.05 -0.07 0.00 0.00 0.06 -0.14 -0.07 -0.13 -0.26 -0.13 0.00 0.06 -0.14 0.00 -0.07 0.00 0.06 -0.07 0.00 0.00 0.06 0.06 -0.06 0.06 0.00 -0.07 0.06 0.00 -0.07 0.05 0.00 0.05 -1000.00 -1000.00 -1000.00 -1000.00 -1000.00 -1000.00 -1000.00 -1000.00 -1000.00 
-1000.00 -1000.00 -1000.00 -1000.00 -1000.00 -1000.00 -1000.00 -1000.00 -1000.00 -1000.00 -1000.00 -1000.00 -1000.00 -1000.00 -1000.00 -1000.00 -1000.00 -1000.00 -1000.00 -1000.00 -1000.00 -1000.00 -1000.00 -1000.00 -1000.00 -1000.00 -1000.00 -1000.00 -1000.00 -1000.00 -1000.00 -1000.00 -1000.00 -1000.00 -1000.00 -1000.00 -1000.00 -1000.00 -1000.00 -1000.00 -1000.00 -1000.00 -1000.00 -1000.00 -1000.00 -1000.00 -1000.00 -1000.00 -1000.00 -1000.00 -1000.00 -1000.00 -1000.00 -1000.00 -1000.00 -1000.00 -1000.00 -1000.00 -1000.00 -1000.00 -1000.00 -1000.00 -1000.00 -1000.00 -1000.00 -1000.00 -1000.00 -1000.00 -1000.00 -1000.00 -1000.00 -1000.00 -1000.00 -1000.00 -1000.00 -1000.00 -1000.00 -1000.00 -1000.00 0.09 0.00 0.00 0.00 0.08 0.20 0.20 0.00 0.00 0.00 0.20 0.12 0.00 0.00 0.08 0.00 0.00 0.09 -0.02 -0.02 0.09 0.09 0.10 0.10 0.00 0.10 0.18 0.00 0.02 0.02 0.00 0.00 0.00 0.02 0.03 0.12 0.00 0.12 0.04 0.04 0.13 0.12 0.00 0.12 0.05 0.06 0.00 -0.19 -0.07 -0.01 -0.14 0.06 0.06 0.00 -0.13 0.00 0.00 -0.08 0.05 -0.13 -0.08 -0.06 -0.06 -0.06 0.00 0.05 -0.08 0.00 0.06 -0.07 0.00 0.00 -0.08 -1000.00 -1000.00 -1000.00 -1000.00 -1000.00 -1000.00 -1000.00 -1000.00 -1000.00 
-1000.00 -1000.00 -1000.00 -1000.00 -1000.00 -1000.00 -1000.00 -1000.00 -1000.00 -1000.00 -1000.00 -1000.00 -1000.00 -1000.00 -1000.00 -1000.00 -1000.00 -1000.00 -1000.00 -1000.00 -1000.00 -1000.00 -1000.00 -1000.00 -1000.00 -1000.00 -1000.00 -1000.00 -1000.00 -1000.00 -1000.00 -1000.00 -1000.00 -1000.00 -1000.00 -1000.00 -1000.00 -1000.00 -1000.00 -1000.00 -1000.00 -1000.00 -1000.00 -1000.00 -1000.00 -1000.00 -1000.00 -1000.00 -1000.00 -1000.00 -1000.00 -1000.00 -1000.00 -1000.00 -1000.00 -1000.00 -1000.00 -1000.00 -1000.00 -1000.00 -1000.00 -1000.00 -1000.00 -1000.00 -1000.00 -1000.00 -1000.00 -1000.00 -1000.00 -1000.00 -1000.00 -1000.00 -1000.00 -1000.00 -1000.00 -1000.00 -1000.00 0.00 0.09 0.20 0.20 0.00 0.00 0.00 0.00 0.20 0.20 0.00 0.00 0.12 0.20 0.08 -0.04 0.08 0.20 -0.02 -0.02 0.09 0.00 0.00 -0.11 -0.10 0.10 0.10 0.00 0.29 0.10 0.02 0.00 0.00 0.11 0.02 0.02 0.00 0.00 -0.08 0.03 0.12 0.00 0.00 0.00 0.05 0.05 0.12 0.00 0.00 -0.07 -0.14 -0.01 -0.26 0.06 0.00 0.00 0.00 0.00 0.05 -0.08 0.05 -0.08 -0.13 0.07 -0.06 0.00 0.00 -0.08 0.05 0.00 -0.07 0.06 0.00 -0.07 -0.08 -1000.00 -1000.00 -1000.00 -1000.00 -1000.00 -1000.00 -1000.00 -1000.00 -1000.00 
-1000.00 -1000.00 -1000.00 -1000.00 -1000.00 -1000.00 -1000.00 -1000.00 -1000.00 -1000.00 -1000.00 -1000.00 -1000.00 -1000.00 -1000.00 -1000.00 -1000.00 -1000.00 -1000.00 -1000.00 -1000.00 -1000.00 -1000.00 -1000.00 -1000.00 -1000.00 -1000.00 -1000.00 -1000.00 -1000.00 -1000.00 -1000.00 -1000.00 -1000.00 -1000.00 -1000.00 -1000.00 -1000.00 -1000.00 -1000.00 -1000.00 -1000.00 -1000.00 -1000.00 -1000.00 -1000.00 -1000.00 -1000.00 -1000.00 -1000.00 -1000.00 -1000.00 -1000.00 -1000.00 -1000.00 -1000.00 -1000.00 -1000.00 -1000.00 -1000.00 -1000.00 -1000.00 -1000.00 -1000.00 -1000.00 -1000.00 -1000.00 -1000.00 -1000.00 -1000.00 -1000.00 -1000.00 -1000.00 -1000.00 -1000.00 -1000.00 0.09 0.00 0.00 0.00 0.20 0.20 0.08 0.08 0.00 0.00 0.19 0.12 0.00 0.00 0.07 0.07 0.06 0.00 0.09 0.09 0.00 0.00 0.00 0.10 0.10 -0.10 -0.10 0.00 -0.10 0.09 0.19 0.00 0.00 0.01 0.02 0.11 0.00 0.11 0.11 0.03 -0.08 0.00 0.00 0.12 0.04 0.04 0.00 0.00 0.12 0.12 0.05 -0.14 -0.07 -0.26 -0.14 0.00 0.00 0.00 -0.13 -0.09 0.05 0.05 0.05 0.00 0.07 0.07 0.00 0.07 -0.08 0.00 -0.08 -0.08 0.00 0.06 -0.07 0.00 0.00 -1000.00 -1000.00 -1000.00 -1000.00 -1000.00 -1000.00 -1000.00 -1000.00 
-1000.00 -1000.00 -1000.00 -1000.00 -1000.00 -1000.00 -1000.00 -1000.00 -1000.00 -1000.00 -1000.00 -1000.00 -1000.00 -1000.00 -1000.00 -1000.00 -1000.00 -1000.00 -1000.00 -1000.00 -1000.00 -1000.00 -1000.00 -1000.00 -1000.00 -1000.00 -1000.00 -1000.00 -1000.00 -1000.00 -1000.00 -1000.00 -1000.00 -1000.00 -1000.00 -1000.00 -1000.00 -1000.00 -1000.00 -1000.00 -1000.00 -1000.00 -1000.00 -1000.00 -1000.00 -1000.00 -1000.00 -1000.00 -1000.00 -1000.00 -1000.00 -1000.00 -1000.00 -1000.00 -1000.00 -1000.00 -1000.00 -1000.00 -1000.00 -1000.00 -1000.00 -1000.00 -1000.00 -1000.00 -1000.00 -1000.00 -1000.00 -1000.00 -1000.00 -1000.00 -1000.00 -1000.00 -1000.00 -0.11 0.00 0.09 0.20 0.20 0.09 0.09 0.00 0.08 0.08 0.20 0.12 0.00 0.13 0.12 0.00 0.00 0.00 0.00 0.00 0.00 0.09 0.00 0.09 0.09 -0.02 -0.01 0.10 0.10 0.10 0.10 0.00 -0.01 0.18 0.00 0.01 0.01 0.00 0.00 -0.09 0.03 0.11 0.12 0.00 0.00 0.04 0.05 0.12 0.00 0.00 0.05 0.05 0.12 0.12 -0.07 -0.07 -0.01 -0.26 -0.13 0.00 0.05 -0.08 -0.13 0.00 -0.08 0.05 0.00 -0.05 0.07 -0.13 -0.06 0.05 0.05 -0.08 0.00 -0.13 -0.07 -0.07 -0.13 -0.06 -1000.00 -1000.00 -1000.00 -1000.00 -1000.00 -1000.00 -1000.00 -1000.00 
-1000.00 -1000.00 -1000.00 -1000.00 -1000.00 -1000.00 -1000.00 -1000.00 -1000.00 -1000.00 -1000.00 -1000.00 -1000.00 -1000.00 -1000.00 -1000.00 -1000.00 -1000.00 -1000.00 -1000.00 -1000.00 -1000.00 -1000.00 -1000.00 -1000.00 -1000.00 -1000.00 -1000.00 -1000.00 -1000.00 -1000.00 -1000.00 -1000.00 -1000.00 -1000.00 -1000.00 -1000.00 -1000.00 -1000.00 -1000.00 -1000.00 -1000.00 -1000.00 -1000.00 -1000.00 -1000.00 -1000.00 -1000.00 -1000.00 -1000.00 -1000.00 -1000.00 -1000.00 -1000.00 -1000.00 -1000.00 -1000.00 -1000.00 -1000.00 -1000.00 -1000.00 -1000.00 -1000.00 -1000.00 -1000.00 -1000.00 -1000.00 -1000.00 -1000.00 -1000.00 -1000.00 -1000.00 0.19 0.10 0.10 0.00 0.00 0.10 0.10 0.20 0.11 0.00 0.00 0.12 0.12 0.00 0.13 0.20 0.06 0.06 0.06 0.06 0.06 -0.07 0.09 0.09 -0.01 0.09 0.09 0.00 0.00 -0.10 0.00 0.10 0.11 0.00 0.29 0.09 0.01 0.00 0.00 0.11 0.02 -0.09 0.00 0.00 0.11 0.04 0.04 0.00 0.00 0.00 0.05 0.05 0.00 0.00 0.00 -0.07 -0.13 0.07 -0.13 -0.19 -0.19 -0.22 0.05 0.00 -0.08 -0.08 0.00 -0.08 -0.06 0.06 -0.07 -0.13 0.00 -0.08 0.05 0.05 -0.08 -0.08 -0.08 -0.05 -0.11 -1000.00 -1000.00 -1000.00 -1000.00 -1000.00 -1000.00 -1000.00 -1000.00 
-1000.00 -1000.00 -1000.00 -1000.00 -1000.00 -1000.00 -1000.00 -1000.00 -1000.00 -1000.00 -1000.00 -1000.00 -1000.00 -1000.00 -1000.00 -1000.00 -1000.00 -1000.00 -1000.00 -1000.00 -1000.00 -1000.00 -1000.00 -1000.00 -1000.00 -1000.00 -1000.00 -1000.00 -1000.00 -1000.00 -1000.00 -1000.00 -1000.00 -1000.00 -1000.00 -1000.00 -1000.00 -1000.00 -1000.00 -1000.00 -1000.00 -1000.00 -1000.00 -1000.00 -1000.00 -1000.00 -1000.00 -1000.00 -1000.00 -1000.00 -1000.00 -1000.00 -1000.00 -1000.00 -1000.00 -1000.00 -1000.00 -1000.00 -1000.00 -1000.00 -1000.00 -1000.00 -1000.00 -1000.00 -1000.00 -1000.00 -1000.00 -1000.00 -1000.00 -1000.00 -1000.00 -1000.00 0.10 0.10 0.20 0.10 0.00 0.00 0.00 0.11 0.11 0.00 0.00 0.12 0.20 0.00 0.00 0.08 0.06 0.06 0.06 0.06 0.06 0.06 0.00 0.09 0.00 0.00 0.00 0.00 0.09 0.00 -0.10 0.00 0.00 0.01 0.09 0.29 0.00 0.00 0.01 0.01 0.11 0.00 0.11 0.03 0.03 0.12 0.00 0.12 0.12 0.03 0.05 0.00 0.00 0.12 0.12 0.05 -0.13 -0.06 0.00 0.00 -0.07 -0.27 -0.19 -0.08 -0.21 0.00 0.05 -0.08 0.00 0.06 0.06 0.00 -0.08 -0.08 -0.13 -0.08 0.05 -0.08 0.00 0.08 -0.05 -1000.00 -1000.00 -1000.00 -1000.00 -1000.00 -1000.00 -1000.00 -1000.00 
-1000.00 -1000.00 -1000.00 -1000.00 -1000.00 -1000.00 -1000.00 -1000.00 -1000.00 -1000.00 -1000.00 -1000.00 -1000.00 -1000.00 -1000.00 -1000.00 -1000.00 -1000.00 -1000.00 -1000.00 -1000.00 -1000.00 -1000.00 -1000.00 -1000.00 -1000.00 -1000.00 -1000.00 -1000.00 -1000.00 -1000.00 -1000.00 -1000.00 -1000.00 -1000.00 -1000.00 -1000.00 -1000.00 -1000.00 -1000.00 -1000.00 -1000.00 -1000.00 -1000.00 -1000.00 -1000.00 -1000.00 -1000.00 -1000.00 -1000.00 -1000.00 -1000.00 -1000.00 -1000.00 -1000.00 -1000.00 -1000.00 -1000.00 -1000.00 -1000.00 -1000.00 -1000.00 -1000.00 -1000.00 -1000.00 -1000.00 -1000.00 -1000.00 -1000.00 -1000.00 -1000.00 -0.09 0.00 0.00 0.10 0.20 0.10 0.10 0.00 0.10 0.20 0.00 0.00 0.00 0.20 0.12 0.00 0.00 0.00 0.00 0.00 0.07 0.00 0.00 0.09 0.09 0.09 0.09 0.09 -0.03 -0.03 0.09 0.00 0.10 0.01 0.01 0.00 0.18 0.19 0.01 0.00 0.00 0.00 -0.09 0.02 0.11 0.00 0.00 -0.09 -0.08 0.12 0.12 0.00 0.00 0.05 0.05 0.12 0.12 0.06 -0.06 0.00 0.00 0.06 0.05 -0.13 -0.21 -0.13 -0.05 -0.09 0.05 -0.13 -0.08 -0.09 -0.09 -0.08 -0.08 -0.08 -0.13 -0.08 -0.08 -0.05 -0.05 0.08 -1000.00 -1000.00 -1000.00 -1000.00 -1000.00 -1000.00 -1000.00 -1000.00 